% Model:              antena_microStript_AITOR.mph
% Version:            COMSOL 5.0.0.243
% Date:               Jan 3 2023, 12:53
% Dimension:          3
% Nodes:              9912
% Expressions:        1
% Description:        Multislice
% x                       y                        z                        Color
-7.210563358451372        74.65800578451521        30                       1.8634272872780202
-7.828024884765231        74.4291289689142         29.999999999999996       2.371910818722154
-8.572124974305671        75.38625304202947        30                       1.527290968684805
-13.631942097289738       77.96577381557827        30                       0.26185071793818754
-13.666265718523608       75.751217967586          29.999999999999996       1.2304832126729737
-15.252964558179062       77.69265548889608        30                       0.33981185739615527
-11.172099826506422       76.74405168696885        30                       0.798865296187974
-7.314892349962362        73.77225239065112        29.999999999999996       2.8330509564968165
-11.602257185696926       73.23782209323659        29.999999999999996       2.9269026214327774
-10.738744541284307       73.35196811721734        30                       2.9073658723391347
-15.591876812908797       74.9860302174173         30                       1.5567903020243774
-11.953817204464343       73.17859430345285        29.999999999999996       2.936160807088418
-5.853842036577089        73.89747871757012        30                       2.5684101850484042
-15.129457503904057       78.72921486614986        29.999999999999996       0.10090305866590617
-15.893191159368653       72.40524181593996        30                       3.067867933582766
-6.845938287994368        79.26558960860368        30                       0.2327547213984509
-7.063848508044809        79.14175586553567        29.999999999999996       0.22748215062505964
-7.059712439899956        79.27823900888563        30                       0.22528100230699613
-6.120757654769414        75.28312393532762        30                       1.5416269941539245
-7.189988684439131        75.34667880125137        30                       1.3889052240435547
-7.45758022347603         78.90908920494338        29.999999999999996       0.23797747298665917
-11.086390772209793       79.44417334109724        30                       0.4884489725999939
-7.334375279334651        79.28615979570662        30                       0.2168591631223535
-7.02626932774668         80.2723701497445         30                       0.1673840989283092
-6.7936543097073825       78.99069302419937        30                       0.25637292595539085
-11.024194525287326       81.2098076845794         30                       -0.01733622026728789
-13.91455173923137        79.47592035847742        30                       0.02427988577767516
-7.546968906205364        83.21777613327863        30                       -0.08111597240992591
-3.5312576588694244       75.73044223254624        30                       1.6369103296572818
-3.528153198243799        76.90962285092442        30                       0.8606381210997021
-3.1522209930194833       76.64985498397856        30                       0.927221406893749
-5.041153065117358        77.87384205883286        30                       0.5422978167817722
-5.469791383704669        82.65063224178427        30                       -0.021715244932020192
-7.008401379868084        83.58943046216835        30                       -0.11635796012606797
-3.5186337123148297       80.52545009373273        29.999999999999996       0.23955210721769954
-1.7103740315579097       80.25913815919199        30                       0.18483359181145004
-2.8982434280042493       77.30480367214058        29.999999999999996       0.8186069235644478
-3.5161769440889197       81.45861492498456        30                       0.06113364003823391
-3.6760860551336942       81.3532966476002         29.999999999999996       0.08126820170169535
-3.716885707863748        81.58107937713108        29.999999999999996       0.047488378333931686
-3.60999770662945         81.51586059811014        30                       0.05383719845408237
-3.5153757516421287       81.76293529453565        29.999999999999996       0.042063590832326546
-3.50420068993404         86.0076069990447         29.999999999999996       -0.11636737471799627
-2.180942029285033        85.16430790460032        30                       -0.10434079757043097
-0.506233822273023        83.44100368659673        30                       -0.03676277934252476
-0.648217208565855        84.18751818707754        30                       -0.08480399673375436
-0.3003375337470672       83.96581805884531        30                       -0.07672476211471717
-5.139707437801857        80.38933604674136        30                       0.14705429292868927
-2.701741438259604        76.33857515368875        30                       1.1588002279424938
4.698116590317546E-15     79.12304855747946        30                       0.33656829021848633
4.583584467124195E-15     83.77441604670027        30                       -0.0679830077638226
-4.428427897781101        85.36981688754268        29.999999999999996       -0.10588490443267377
4.653845802068289E-15     80.92096952011761        30                       0.18827103075712592
-1.3098868893568336       87.52185764180675        30                       -0.11689007287638331
4.558855781247469E-15     84.77869504137135        30                       -0.10141709932532184
4.713697825957349E-15     78.49026492546282        30                       0.49509116127509045
4.4690523439308464E-15    88.42578353592106        30                       -0.09941678799496638
-0.748786620791271        74.13304559260317        30                       2.970338794122004
-3.53826801422902         74.04271962192489        30                       3.0980962592591403
-1.7940580458954996       75.22806225205676        29.999999999999996       2.260025486622143
8.526221274670687E-15     74.6987581272882         30                       2.572375912215279
6.730977378506531E-15     76.42231865811547        29.999999999999996       1.2055570421010184
9.08013322750858E-15      74.14491454867252        29.999999999999996       2.9412706069624157
-7.792677338110689        95.04635762030405        29.999999999999996       0.05866327608105079
-5.557047486884596        95.20195193634834        30                       0.057127843196816845
-6.9061449246266085       92.79555612024174        30.000000000000004       0.024644083614179108
-7.7781098079347135       92.34200018312791        30                       0.04178089156684159
-3.9045378727817748       95.28980071081843        30                       0.058001333152189506
-1.8136401556332427       95.34980586487781        30                       0.058173407424981616
-3.901956744033268        94.35604554285729        30                       0.04572870510838095
-11.664439585957368       94.66568127437003        30                       0.060294444948370676
-10.69945314346695        94.77167448344373        30                       0.05945536562541058
-11.661002232423755       94.23833838965403        30                       0.10378161145789613
-3.8965063161801483       92.31927860145703        30                       0.0118919976743279
-0.34704969486231546      92.46541217979579        29.999999999999996       0.008508887539317994
-0.6501670702875927       91.9722967642572         30                       0.002506714391857426
-3.8911531699659303       90.40492400037742        29.999999999999996       -0.009015876627222367
-7.296280386804939        92.09518194087843        30                       0.03283270206890203
9.271313450976826E-15     93.03688775420555        29.999999999999996       0.017201597698519606
-9.302033780293872        93.09081011690256        30                       0.06529785736277402
-2.1558120802219034       89.50693642091075        29.999999999999996       -0.03549209023587919
8.696749731372479E-15     92.47406806238938        29.999999999999996       0.00857516600611399
5.715200718866201E-15     89.58759011257632        30                       -0.0342965867949504
8.497437924600036E-15     92.28625715581568        29.999999999999996       0.006458203698132027
1.167983138065127E-14     95.37306094118912        30                       0.05944952601128473
-12.373417837465675       94.57009487548017        30                       0.10970390729900088
-7.894775912453277        84.03395268740202        30                       -0.1487535539675805
-9.094626796451735        86.83106695508869        30                       -0.1017803600887576
-7.24437850831529         86.26639407127405        30                       -0.07023678219060636
-10.176128518617494       89.37724074754036        30                       -0.05977314173170148
-10.614664548682294       90.40283327544206        30                       -0.020802866592928536
-7.525865117157146        89.46730702837776        29.999999999999996       -0.013110392505382304
-7.396419787115587        87.99743187212846        30                       -0.0861769569375647
-11.510197750234376       92.51803289353603        30                       0.057242962818282006
-12.107859891547532       93.93424434245986        30                       0.11087615536400153
-11.622116573506414       93.79350978922828        29.999999999999996       0.1391213511029839
-5.025293996337596        86.7704445541564         30                       -0.11224081154012738
-5.971446994201566        88.97613368189238        29.999999999999993       -0.043851323624977956
-3.7049034774500633       88.28441264526086        30                       -0.02395517438066588
-11.371458890360136       89.25239375319539        30                       -0.057335675100713766
-14.82124689447766        83.98967852858257        30                       -0.12791514586296482
-12.8527539762199         89.05651641679847        30                       -0.0585535226446318
-11.13241890220301        83.72795070182977        30                       -0.13182594567231706
-15.311335021577591       82.72820734526103        29.999999999999996       -0.1284191124652428
-15.112393285972802       83.23976528641126        30                       -0.13770247216552756
-11.401951473798135       89.94041218919403        30                       -0.03406048415072715
-11.216095200852493       85.59543891081165        30                       -0.10294230742275852
-15.572570959540013       88.6614784584423         30                       -0.06014119462432194
-15.332771851001663       83.20983198490372        29.999999999999996       -0.13996048105252812
-15.70861093091753        91.75126020404714        30                       0.041574174384760215
-15.521548638439514       87.45110994742541        30                       -0.07505500273078375
-15.328547704580238       83.110767970615          30                       -0.13799143728707747
-15.80398797857806        94.04002872803622        30                       0.10445990497910204
-24.952749929711878       81.9636028619203         30                       -0.09011309739071069
-22.68486354213086        81.22481202421713        29.999999999999996       -0.08102127964140449
-25.091140239866913       80.53813512810703        30                       -0.04995435888823719
-20.055163468120433       80.39342011741391        30                       -0.029496203098845535
-17.11391641434865        79.41001004918331        30                       0.04996011988536386
-20.471801251613556       76.65814925468814        30                       0.38941241790076725
-20.486085707136002       76.52735804659352        30                       0.399525760710437
-20.39258628778413        76.49701331576856        29.999999999999996       0.40456728669232
-20.491962514309783       76.46951904221898        29.999999999999996       0.3903812258865129
-20.59167412732894        76.55967454578337        30                       0.3788258174356998
-20.298420645226294       76.30037768922443        30                       0.5106339989518782
-27.512276327988687       82.75102102448528        30                       -0.10429087874280651
-19.902466788485253       93.27305922153988        30.000000000000004       0.10759163858611734
-19.320693897292966       91.93685079304836        30                       0.06156528979343927
-20.668703274341027       93.11401640537285        30                       0.10824790743645765
-17.696812519017552       88.21343414459659        30                       -0.05897538614546234
-15.633819885387265       83.46973713091077        30                       -0.13724324535696747
-20.404471628519154       87.58556637110581        30                       -0.05748050877043417
-24.93747308079108        86.36084496441991        30                       -0.05097362745831551
-24.742607016647558       85.91588086952258        30                       -0.058886817762004745
-25.180919833991187       86.28968113449562        30                       -0.05060469249026798
-15.503130267568485       83.1697354637575         30                       -0.14181025419120202
-20.131478421149286       81.98075285285272        30                       -0.13976747667608388
-20.484855109670875       89.21574118937104        30                       -0.002377730185185778
-25.189410980302682       86.44614380112759        30                       -0.045197771768164516
-20.273029106303106       84.82519905201627        30                       -0.09334928571749951
-23.473263945712766       90.23779943456026        30                       0.057041553680924305
-25.469101237718498       86.53586959984688        30                       -0.031869080917558815
-25.218415109354048       87.00058775727686        30.000000000000004       -0.021887705385241873
-25.694177797542224       86.11919821374057        30                       -0.04181747295850182
-22.11583721610539        92.75944596584613        30                       0.10548308623658266
-25.293213976279546       90.05638903198691        29.999999999999996       0.08465265324708397
-29.787440206856694       86.0266076882376         30                       0.03192451568017244
-29.713892351232708       83.67287322263073        30                       -0.0792174044595705
-25.310171295328296       91.03171102994014        30                       0.08943691001425118
-29.845492451612756       88.39824954348188        30                       0.06310448655604942
-27.467537868741232       89.79997091616823        30                       0.07375115837266874
-33.97210776221084        85.45585681075111        29.999999999999996       -0.015685283090418525
-33.66217907457873        86.03002521719162        30                       0.03491826329971438
-34.347414134955265       85.61300365245272        30                       -0.002531306662789072
-29.3272778527734         81.9143885927715         30                       -0.13277278372469814
-30.88590386687047        81.1745839627251         30                       -0.13329622661304513
-32.09616815255109        82.81358753256336        30                       -0.11282211419545024
-34.28035429027818        85.3090306603562         29.999999999999996       -0.0531158214489929
-33.60941590089065        82.26775982657097        30                       -0.10067315742631328
-33.12610985405588        80.07700042558871        30                       -0.12207057983968583
-24.704921397515697       75.34739994172868        30                       0.34818178524402094
-26.50616270831634        76.12134794902222        30                       0.24761935097049537
-25.335294425138102       76.24297183420167        30                       0.2684865899634539
-27.844850608196165       79.80501944291997        30                       -0.08905928382669731
-24.344404651625606       74.83650937997497        30                       0.6444137777071173
-21.578024357789467       70.90992731060814        29.999999999999996       3.1210286942529057
-27.361583260871022       73.3677858634756         29.999999999999996       0.8680052756685653
-23.94754872039441        75.02419652906633        29.999999999999996       0.6046751652848152
-17.304719507324062       72.07604944273673        29.999999999999996       3.1111246732758655
-21.176792350293198       76.29100208631316        30                       0.37014214862310885
-28.30932321992349        74.17544040589206        29.999999999999996       0.34116548473810754
-24.42219857932123        75.43170334287552        30                       0.34917081374627396
-29.004532923827938       79.46544786534236        30                       -0.09045955896540009
-30.105043647640557       75.76027831919129        30                       0.04273259671562337
-23.747482037223676       70.21603271498176        30                       3.1311728200336217
-19.841765300681125       71.41832880915518        30                       3.111674129694145
-28.85779286625853        73.9781144563868         29.999999999999996       0.15708645464175466
-28.15143511846453        72.97117547514385        29.999999999999996       0.5228080308654125
-32.011511221203435       78.48207956652263        30                       -0.1529823983269339
-25.729313918081637       69.51319245156193        30                       2.2746932839255156
-29.312448487200363       70.80800970915091        30                       0.8718697079712917
-28.83367746857965        71.73063215718864        30                       0.33001613947017366
-27.45235751299945        70.16231814498526        30                       1.2663902314261908
-31.89560687128821        75.12544598672757        30                       -0.04684746187841896
-31.25321880916288        72.58186189079733        30                       0.10967486097063506
-32.65552626245098        78.18336806183324        30                       -0.16629933367036687
-32.81544588578701        78.819929632631          30                       -0.15382402741184326
-30.945879272841825       71.35191719741745        30                       0.5554698103839287
-27.846967713045984       68.71249077552937        30                       2.9556969795534656
-29.010766211184023       68.21682291976174        30                       2.9904302457944016
-31.178728217504123       70.54178624853054        30                       1.2765456663200372
-31.572675213328786       69.11173193422927        30                       1.875292212917116
-32.159215059969874       66.82536664295701        29.999999999999996       3.1463805310667703
-35.47710310568722        71.6609798574739         29.999999999999996       0.18522940824662704
-36.00669917776422        73.74000131303623        30                       -0.01954228799409429
-33.4011744090591         71.51127246113525        30                       0.29802211950594515
-35.28052922493029        75.36952500796633        30                       -0.08712061043351582
-34.3632890691693         77.37372416420976        29.999999999999996       -0.14336695112627573
-33.67832873253535        78.88823111190176        29.999999999999996       -0.12982536743311146
-36.88592124765           71.73744191150485        29.999999999999996       0.0749873023197437
-34.558183237309784       71.04700502291973        30                       0.388327473758616
-34.50677294563384        69.286476732731          29.999999999999996       1.1847031964099815
-35.75831699728513        70.56543304813877        30                       0.3262386232531528
-25.20068101711862        91.97528075688206        30                       0.08828081863108078
-26.802134911640906       91.52460505698026        30                       0.08497161631760772
-29.594087978949865       90.64641553192311        29.999999999999996       0.08340391210489007
-33.28565330969325        89.38259261604387        30                       0.07936887514450494
-34.21536910187372        86.84013840079733        30                       0.036703989912544636
-34.32498915911277        85.79842853731034        30                       0.01898531853456228
-33.96956369848709        89.12448295194983        30                       0.07969217447250285
-41.042288827103384       73.66756251646528        30                       -0.17579460708658845
-41.93831718790817        74.0911446793347         30                       -0.16063356481040805
-39.518083174018216       74.55996901595165        30                       -0.1496899053561046
-46.449614919125175       76.17859921099267        30                       -0.0824003665905603
-46.987711146781464       76.42670293955742        30                       -0.07303899220579577
-46.79329150643487        76.46541017104124        30                       -0.07306526340897404
-47.091867836077284       76.47368605313035        30                       -0.07119366614585472
-52.03415829975537        78.74445018258717        30                       0.12454550246335279
-50.00804516123769        79.17201968378508        30                       0.07846649989353392
-46.92303274428936        76.5768474591275         30                       -0.07093182163554547
-36.831499922677416       76.09836642683989        30                       -0.15022320344777457
-40.33904785368596        77.77552665050285        30                       -0.10644897716687343
-35.733265960320985       78.53921668249522        30                       -0.1274489512790721
-42.91597045163823        78.98224890867252        30                       -0.0747594490976011
-45.39449450510921        80.16320784450681        30                       0.012642185343924993
-38.910425895844305       81.31615519813886        29.999999999999996       -0.0709827049094936
-38.798846274662836       81.22048869006149        30                       -0.07637029564304317
-38.649221008191624       81.30025261284179        30                       -0.0764188110481869
-38.743114915003176       81.3465658356697         29.999999999999996       -0.07315588114715278
-38.46972878286914        81.38621376914648        30                       -0.054174726505165055
-41.53142870677705        75.03875913449305        30                       -0.13021922668495625
-48.98181033018081        81.83724252635541        30                       0.13095402894104152
-51.36045937117508        80.34301108575677        30                       0.1378943898844569
-39.19012284317967        81.56271391426213        30                       -0.037202199002507166
-44.24943764882679        82.78333425635792        30                       0.08449570166220448
-38.69920000029116        81.44336706992368        29.999999999999996       -0.0487819120789723
-53.10729317663247        79.2268410663157         29.999999999999996       0.15595096229449504
-46.42674274183014        83.29564843552652        30                       0.13066589676966148
-42.82067106218375        84.07615480771288        30                       0.08572394793145603
-37.65760092504988        82.35298293491735        30                       -0.02936974622282576
-44.465771382113786       83.7391237377656         30                       0.10697505831072966
-35.021793917873424       85.4906870746368         30                       -0.009020921900325631
-39.433966972420066       84.73040361257955        30                       0.0440277287807916
-34.5278498696773         85.7162113806643         30                       0.011220178241653531
-35.44746320208447        86.26743060057377        30                       0.03239013774448615
-37.70281698178541        87.60915646997955        30                       0.08837504492965123
-45.037160271456216       84.0705961705572         30                       0.11175700956386654
-44.17818368830858        84.52828307502931        30                       0.10779500555480762
-44.342026733218454       84.07653085177016        30                       0.1029850615115599
-41.41232451083236        85.89263402830468        30                       0.10022593321858442
-38.39805219305203        87.30910243972016        30                       0.08944346456352882
-38.983685682861164       85.84407572807186        30                       0.07307902970727873
-38.77325443277917        70.0927222944612         30                       0.13727703003160263
-37.782475079140426       69.59628222138122        30                       0.2986180890041716
-38.71574449852629        69.68454787458504        29.999999999999996       0.24558080197024446
-35.59925101129402        69.39091465243136        29.999999999999996       0.7690672948132233
-35.468689815474804       68.44501791880658        29.999999999999996       1.3441913892321913
-32.20644875579874        66.80267297400408        29.999999999999996       3.040652288079882
-35.278834349736286       67.0991028904497         30                       1.9994357270948293
-38.64000412316943        69.15621378866553        29.999999999999996       0.31311414863983256
-36.802489656536764       67.24379504557226        30                       1.606406799647156
-38.385768678665826       67.36939875649249        30                       1.1037148143062512
-38.18164502475717        65.95888694493713        30                       1.9785323544627673
-35.9638864669388         64.84210784643754        29.999999999999996       3.2047054114297007
-38.041457031052154       65.00857228956775        30                       2.4542976811258224
-41.43418854258205        67.57781529307036        30                       0.39951393537610597
-39.08757637719391        65.09074862686278        29.999999999999996       2.1610452180004023
-41.12103243249531        65.21836022601047        30                       1.4701608254898813
-41.47482699816959        67.59794768137765        30                       0.29349656046277417
-39.18006286000688        69.72774797845932        30                       0.15651827805785937
-41.46357349026156        67.60869040559453        29.999999999999996       0.29078927703671464
-41.401326095903194       67.6661648200715         30                       0.280799191640667
-43.7362516410298         65.37819633763326        30                       0.674748569862831
-35.02772389679619        65.34931870679021        30                       3.1613235603428214
-37.852718044457504       63.748749902223125       30                       3.3003267700597725
-42.72241241109253        64.29353968215419        30                       1.7763317752365555
-40.8399166773331         63.35617456598312        30.000000000000004       2.87760775237759
-39.56093660941945        62.71194663859755        30                       3.7114842810394397
-44.12204992378695        64.9872331392776         30                       0.882518295769431
-44.06864302737707        72.16012993443965        30                       -0.15452612537923416
-47.17191626894817        76.42990291048642        30                       -0.0702053172392448
-52.515760750001355       78.28913782391558        30                       0.12257287688496085
-47.0349336236537         76.3836942243016         30                       -0.0733553784077789
-49.26852243584959        74.29163351144987        30                       -0.037966206155474407
-44.290518269106855       72.04714050627416        29.999999999999996       -0.15097589218480073
-44.33943426286971        72.01902929200867        30                       -0.1499607230520856
-49.7185583622481         73.8562379924697         30                       -0.07232944746618873
-44.22574390273019        72.0184888568981         30                       -0.1486334072536935
-43.88061291216658        71.86232151544587        29.999999999999996       -0.13253463156668965
-44.25508403228093        71.99113215820644        30                       -0.1471275920644118
-46.50255771864578        69.83624812798524        30                       -0.04842683330644658
-41.48844182148914        67.61946764875368        30                       0.198959951192035
-41.50688913305236        67.60833622053563        29.999999999999996       0.19949854191857683
-46.920659879889726       69.42227757492968        30                       -0.041988866327548655
-50.27234235268974        74.73409959975412        30                       -0.06052445805729781
-47.43613363160743        70.23940727528306        30                       -0.11650204896569889
-44.598639000631735       65.74272064825139        29.999999999999996       0.3123595556711163
-42.77338692041239        61.051033031268204       30                       4.262719704178278
-43.17349869336072        62.21720921348388        30                       3.3468937108452477
-42.37774803485016        60.853512370658194       30                       4.218551090719279
-40.42680923320378        62.155996125035614       30                       4.086933686456982
-42.64138739154712        60.66932794217566        29.999999999999996       4.360521021767887
-52.53486182836724        77.31897476938295        30                       0.08210213985792611
-50.33158439371254        73.88311523279891        30                       -0.1192480634711593
-49.736814858698274       72.94818267851561        30                       -0.08998304780207345
-47.49193620299832        69.44790133070498        30                       -0.12285973684726544
-46.93800724066657        68.57722686025629        30                       0.08128647730483106
-44.65085088791254        65.01149291949538        29.999999999999996       0.6676534662303723
-50.51519316483866        70.70727539941777        29.999999999999996       -0.16693850294883716
-52.60684203788385        72.72526350972701        30                       -0.03556482172733509