% Model:              antena_microStript_AITOR.mph
% Version:            COMSOL 5.0.0.243
% Date:               Jan 3 2023, 12:53
% Dimension:          3
% Nodes:              9925
% Expressions:        1
% Description:        Multislice
% x                       y                        z                        Color
-7.210563358451372        74.65800578451521        30                       -0.29142239111919827
-7.828024884765231        74.4291289689142         29.999999999999996       0.6622700583649936
-8.572124974305671        75.38625304202947        30                       -0.24049745589398847
-13.631942097289738       77.96577381557827        30                       -0.050215011014859166
-13.666265718523608       75.751217967586          29.999999999999996       0.45515045000337473
-15.252964558179062       77.69265548889608        30                       0.1751333436910728
-11.172099826506422       76.74405168696885        30                       -0.10365026267472552
-7.314892349962362        73.77225239065112        29.999999999999996       0.8045188601039401
-11.602257185696926       73.23782209323659        29.999999999999996       1.0633019425561925
-10.738744541284307       73.35196811721734        30                       1.0102859659468348
-15.591876812908797       74.9860302174173         30                       0.715639561548932
-11.953817204464343       73.17859430345285        29.999999999999996       1.0861079084601633
-5.853842036577089        73.89747871757012        30                       0.16019159509982234
-15.129457503904057       78.72921486614986        29.999999999999996       0.003337853031571186
-15.893191159368653       72.40524181593996        30                       1.1902069816255822
-6.845938287994368        79.26558960860368        30                       -0.2385015141832689
-7.063848508044809        79.14175586553567        29.999999999999996       -0.2603587637095676
-7.059712439899956        79.27823900888563        30                       -0.25449303873255885
-6.120757654769414        75.28312393532762        30                       -0.625290046880617
-7.189988684439131        75.34667880125137        30                       -1.2163544630404337
-7.45758022347603         78.90908920494338        29.999999999999996       -0.2605020691390082
-11.086390772209793       79.44417334109724        30                       -0.5447586494138805
-7.334375279334651        79.28615979570662        30                       -0.25384231510064503
-7.02626932774668         80.2723701497445         30                       -0.22542273425856657
-6.7936543097073825       78.99069302419937        30                       -0.24436896513800832
-11.024194525287326       81.2098076845794         30                       -0.06501958010565555
-13.91455173923137        79.47592035847742        30                       -0.03860592035866575
-7.546968906205364        83.21777613327863        30                       -0.10828707696162142
-3.5312576588694244       75.73044223254624        30                       0.3339061229608978
-3.528153198243799        76.90962285092442        30                       -0.18497267590153504
-3.1522209930194833       76.64985498397856        30                       -0.17976991052755933
-5.041153065117358        77.87384205883286        30                       -0.20345070259170112
-5.469791383704669        82.65063224178427        30                       -0.20343395099079367
-7.008401379868084        83.58943046216835        30                       -0.1601980378172544
-3.5186337123148297       80.52545009373273        29.999999999999996       -0.19569424667511173
-1.7103740315579097       80.25913815919199        30                       -0.19124792440492594
-2.8982434280042493       77.30480367214058        29.999999999999996       -0.17873781014209045
-3.5161769440889197       81.45861492498456        30                       -0.20029157191291846
-3.6760860551336942       81.3532966476002         29.999999999999996       -0.19979410426097458
-3.716885707863748        81.58107937713108        29.999999999999996       -0.20115719440078364
-3.60999770662945         81.51586059811014        30                       -0.2000932607207477
-3.5153757516421287       81.76293529453565        29.999999999999996       -0.19355064920312742
-3.50420068993404         86.0076069990447         29.999999999999996       -0.08283349836987282
-2.180942029285033        85.16430790460032        30                       -0.05465670823032867
-0.506233822273023        83.44100368659673        30                       -0.07821165384839324
-0.648217208565855        84.18751818707754        30                       -0.06542065930431269
-0.3003375337470672       83.96581805884531        30                       -0.06362627248510101
-5.139707437801857        80.38933604674136        30                       -0.20954496789500518
-2.701741438259604        76.33857515368875        30                       0.2010460789624938
4.698116590317546E-15     79.12304855747946        30                       -0.20071588638913623
4.583584467124195E-15     83.77441604670027        30                       -0.06646833524386564
-4.428427897781101        85.36981688754268        29.999999999999996       -0.09263455689469459
4.653845802068289E-15     80.92096952011761        30                       -0.14666491635484966
-1.3098868893568336       87.52185764180675        30                       0.01228634270397367
4.558855781247469E-15     84.77869504137135        30                       -0.01966283233096433
4.713697825957349E-15     78.49026492546282        30                       -0.10340802186576525
4.4690523439308464E-15    88.42578353592106        30                       0.01889431759035758
-0.748786620791271        74.13304559260317        30                       1.012990362169488
-3.53826801422902         74.04271962192489        30                       1.2564130550094763
-1.7940580458954996       75.22806225205676        29.999999999999996       0.8030571353649517
8.526221274670687E-15     74.6987581272882         30                       0.8032002838008285
6.730977378506531E-15     76.42231865811547        29.999999999999996       0.3421150276863806
9.08013322750858E-15      74.14491454867252        29.999999999999996       0.9427054300613367
-7.792677338110689        95.04635762030405        29.999999999999996       -0.004813683540692422
-5.557047486884596        95.20195193634834        30                       -0.0030158541767498553
-6.9061449246266085       92.79555612024174        30.000000000000004       -0.0019888390859665534
-7.7781098079347135       92.34200018312791        30                       0.023792485846743774
-3.9045378727817748       95.28980071081843        30                       -0.0023825085819005622
-1.8136401556332427       95.34980586487781        30                       -0.001345995499892252
-3.901956744033268        94.35604554285729        30                       5.850368200751763E-4
-11.664439585957368       94.66568127437003        30                       -0.00743865828120822
-10.69945314346695        94.77167448344373        30                       -0.006933760802556765
-11.661002232423755       94.23833838965403        30                       0.04600183294406829
-3.8965063161801483       92.31927860145703        30                       9.83660321791864E-4
-0.34704969486231546      92.46541217979579        29.999999999999996       0.0043844848180598864
-0.6501670702875927       91.9722967642572         30                       -4.2814669599746226E-4
-3.8911531699659303       90.40492400037742        29.999999999999996       -0.010713523399572572
-7.296280386804939        92.09518194087843        30                       0.02058754021980726
9.271313450976826E-15     93.03688775420555        29.999999999999996       0.0032597659921963706
-9.302033780293872        93.09081011690256        30                       0.032384255096701176
-2.1558120802219034       89.50693642091075        29.999999999999996       -0.028355667323318245
8.696749731372479E-15     92.47406806238938        29.999999999999996       0.004607437523830934
5.715200718866201E-15     89.58759011257632        30                       -0.023946204886520737
8.497437924600036E-15     92.28625715581568        29.999999999999996       0.00329104815882192
1.167983138065127E-14     95.37306094118912        30                       -7.454204511674243E-6
-12.373417837465675       94.57009487548017        30                       0.02852186039337061
-7.894775912453277        84.03395268740202        30                       -0.04875320759502745
-9.094626796451735        86.83106695508869        30                       -0.03633993084488776
-7.24437850831529         86.26639407127405        30                       -0.06341524572400808
-10.176128518617494       89.37724074754036        30                       -0.02266887420989258
-10.614664548682294       90.40283327544206        30                       -0.010176580701528867
-7.525865117157146        89.46730702837776        29.999999999999996       -0.018490232053621908
-7.396419787115587        87.99743187212846        30                       -0.054130686215690865
-11.510197750234376       92.51803289353603        30                       0.01857972161988105
-12.107859891547532       93.93424434245986        30                       0.03726607562649374
-11.622116573506414       93.79350978922828        29.999999999999996       0.08696320201220417
-5.025293996337596        86.7704445541564         30                       -0.07990970158076269
-5.971446994201566        88.97613368189238        29.999999999999993       -0.03228305195938675
-3.7049034774500633       88.28441264526086        30                       -0.05447982882193431
-11.371458890360136       89.25239375319539        30                       -0.016329669578291017
-14.82124689447766        83.98967852858257        30                       0.01229856586559114
-12.8527539762199         89.05651641679847        30                       -0.014731647463497434
-11.13241890220301        83.72795070182977        30                       7.420506455784919E-4
-15.311335021577591       82.72820734526103        29.999999999999996       -0.005061921653743381
-15.112393285972802       83.23976528641126        30                       0.015302966047921942
-11.401951473798135       89.94041218919403        30                       -0.018079517024569315
-11.216095200852493       85.59543891081165        30                       -0.010126751309797705
-15.572570959540013       88.6614784584423         30                       -0.01108500406734471
-15.332771851001663       83.20983198490372        29.999999999999996       6.729558581737016E-4
-15.70861093091753        91.75126020404714        30                       -0.016719090309470146
-15.521548638439514       87.45110994742541        30                       -0.00950536478890074
-15.328547704580238       83.110767970615          30                       -4.5399303056917195E-4
-15.80398797857806        94.04002872803622        30                       -0.017683003143303358
-24.952749929711878       81.9636028619203         30                       -0.017004679877532333
-22.68486354213086        81.22481202421713        29.999999999999996       0.01558112198680613
-25.091140239866913       80.53813512810703        30                       -0.02561425753759268
-20.055163468120433       80.39342011741391        30                       0.016797232332262234
-17.11391641434865        79.41001004918331        30                       0.011523699157128406
-20.471801251613556       76.65814925468814        30                       0.257013495058756
-20.486085707136002       76.52735804659352        30                       0.26212454843497757
-20.39258628778413        76.49701331576856        29.999999999999996       0.2640854829680475
-20.491962514309783       76.46951904221898        29.999999999999996       0.18496410954598894
-20.59167412732894        76.55967454578337        30                       0.18080947772675063
-20.298420645226294       76.30037768922443        30                       0.2237875646339475
-27.512276327988687       82.75102102448528        30                       -0.0827466018249809
-19.902466788485253       93.27305922153988        30.000000000000004       -0.022785898577418896
-19.320693897292966       91.93685079304836        30                       -0.02060011974656441
-20.668703274341027       93.11401640537285        30                       -0.024038472414606393
-17.696812519017552       88.21343414459659        30                       -0.013487109584451025
-15.633819885387265       83.46973713091077        30                       -0.015116006424662588
-20.404471628519154       87.58556637110581        30                       -0.017782236676068743
-24.93747308079108        86.36084496441991        30                       -0.02613292312290606
-24.742607016647558       85.91588086952258        30                       -0.026332814746065233
-25.180919833991187       86.28968113449562        30                       -0.026648016746470927
-15.503130267568485       83.1697354637575         30                       -0.01498234165209037
-20.131478421149286       81.98075285285272        30                       -0.02088750027554841
-20.484855109670875       89.21574118937104        30                       -0.01875256289254297
-25.189410980302682       86.44614380112759        30                       -0.0267376436888996
-20.273029106303106       84.82519905201627        30                       -0.016851787137554485
-23.473263945712766       90.23779943456026        30                       -0.03510021444661469
-25.469101237718498       86.53586959984688        30                       -0.041203644152183354
-25.218415109354048       87.00058775727686        30.000000000000004       -0.04003410342932625
-25.694177797542224       86.11919821374057        30                       -0.04170983338008814
-22.11583721610539        92.75944596584613        30                       -0.026340316927273056
-25.293213976279546       90.05638903198691        29.999999999999996       -0.04321037243536978
-29.787440206856694       86.0266076882376         30                       -0.05220651216158514
-29.713892351232708       83.67287322263073        30                       -0.10577965603497408
-25.310171295328296       91.03171102994014        30                       -0.03343042360878076
-29.845492451612756       88.39824954348188        30                       -0.04062972086153768
-27.467537868741232       89.79997091616823        30                       -0.03528790610596825
-33.97210776221084        85.45585681075111        29.999999999999996       -0.12032520822555615
-33.66217907457873        86.03002521719162        30                       -0.0430717806905806
-34.347414134955265       85.61300365245272        30                       -0.06524824421298893
-29.3272778527734         81.9143885927715         30                       -0.07741508008088867
-30.88590386687047        81.1745839627251         30                       -0.03255250657203326
-32.09616815255109        82.81358753256336        30                       -0.09694680883778753
-34.28035429027818        85.3090306603562         29.999999999999996       -0.10476389617530815
-33.60941590089065        82.26775982657097        30                       -5.365908555415508E-4
-33.12610985405588        80.07700042558871        30                       0.07198040242385789
-24.704921397515697       75.34739994172868        30                       0.19519691104845033
-26.50616270831634        76.12134794902222        30                       0.15826430298829414
-25.335294425138102       76.24297183420167        30                       0.1445717076082767
-27.844850608196165       79.80501944291997        30                       -0.05137570853714088
-24.344404651625606       74.83650937997497        30                       0.3225471114015282
-21.578024357789467       70.90992731060814        29.999999999999996       1.2571154169475165
-27.361583260871022       73.3677858634756         29.999999999999996       0.493192368996453
-23.94754872039441        75.02419652906633        29.999999999999996       0.2992853353994891
-17.304719507324062       72.07604944273673        29.999999999999996       1.1734502757029437
-21.176792350293198       76.29100208631316        30                       0.12026060551957472
-28.30932321992349        74.17544040589206        29.999999999999996       0.27364960811626454
-24.42219857932123        75.43170334287552        30                       0.1886819802587676
-29.004532923827938       79.46544786534236        30                       -0.024090813822963755
-30.105043647640557       75.76027831919129        30                       -0.02298917336018806
-23.747482037223676       70.21603271498176        30                       1.2891631325685435
-19.841765300681125       71.41832880915518        30                       1.2208631205081841
-28.85779286625853        73.9781144563868         29.999999999999996       0.0030047985345776906
-28.15143511846453        72.97117547514385        29.999999999999996       -0.11039456260362934
-32.011511221203435       78.48207956652263        30                       -0.04496328016479817
-25.729313918081637       69.51319245156193        30                       0.0605391260654781
-29.312448487200363       70.80800970915091        30                       -0.20012739416212738
-28.83367746857965        71.73063215718864        30                       -1.571144999468293
-27.45235751299945        70.16231814498526        30                       -0.36773158215882895
-31.89560687128821        75.12544598672757        30                       0.08065570437378482
-31.25321880916288        72.58186189079733        30                       0.08682185874401244
-32.65552626245098        78.18336806183324        30                       0.0028973876925686634
-32.81544588578701        78.819929632631          30                       0.019813452104354853
-30.945879272841825       71.35191719741745        30                       0.34147634301799223
-27.846967713045984       68.71249077552937        30                       1.3311179771161095
-29.010766211184023       68.21682291976174        30                       1.391966848704818
-31.178728217504123       70.54178624853054        30                       0.9775669000605115
-31.572675213328786       69.11173193422927        30                       1.35758655670473
-32.159215059969874       66.82536664295701        29.999999999999996       1.6215939147727843
-35.47710310568722        71.6609798574739         29.999999999999996       0.3558300482550991
-36.00669917776422        73.74000131303623        30                       0.25547243584424006
-33.4011744090591         71.51127246113525        30                       0.43001234257808163
-35.28052922493029        75.36952500796633        30                       0.21198029306602106
-34.3632890691693         77.37372416420976        29.999999999999996       0.1457327126322066
-33.67832873253535        78.88823111190176        29.999999999999996       0.12688612747950181
-36.88592124765           71.73744191150485        29.999999999999996       0.2764359971427996
-34.558183237309784       71.04700502291973        30                       0.5160017567932601
-34.50677294563384        69.286476732731          29.999999999999996       0.7913269009400243
-35.75831699728513        70.56543304813877        30                       0.33582548369142246
-25.20068101711862        91.97528075688206        30                       -0.0245222033085059
-26.802134911640906       91.52460505698026        30                       -0.024485123962952025
-29.594087978949865       90.64641553192311        29.999999999999996       -0.027748335123341905
-33.28565330969325        89.38259261604387        30                       -0.029292098147435577
-34.21536910187372        86.84013840079733        30                       -0.027311887211841405
-34.32498915911277        85.79842853731034        30                       -0.026355304850232453
-33.96956369848709        89.12448295194983        30                       -0.03060153057869039
-41.042288827103384       73.66756251646528        30                       0.09133258508047963
-41.93831718790817        74.0911446793347         30                       0.0744804868317199
-39.518083174018216       74.55996901595165        30                       0.14502005658755246
-46.449614919125175       76.17859921099267        30                       -0.003418890333189737
-46.987711146781464       76.42670293955742        30                       -0.01284689792875605
-46.79329150643487        76.46541017104124        30                       -0.0085809265628205
-47.091867836077284       76.47368605313035        30                       -0.01450280502597908
-52.03415829975537        78.74445018258717        30                       -0.055184717818852216
-50.00804516123769        79.17201968378508        30                       -0.06598630443306193
-46.92303274428936        76.5768474591275         30                       -0.012990450246856638
-36.831499922677416       76.09836642683989        30                       0.16240354859082914
-40.33904785368596        77.77552665050285        30                       0.07114768831227163
-35.733265960320985       78.53921668249522        30                       0.12977618629240067
-42.91597045163823        78.98224890867252        30                       0.00407405439566517
-45.39449450510921        80.16320784450681        30                       -0.030521024223232367
-38.910425895844305       81.31615519813886        29.999999999999996       0.016453561774759057
-38.798846274662836       81.22048869006149        30                       0.01844706789545443
-38.649221008191624       81.30025261284179        30                       0.018980861538656864
-38.743114915003176       81.3465658356697         29.999999999999996       0.017651404760617783
-38.46972878286914        81.38621376914648        30                       0.02793673994074051
-41.53142870677705        75.03875913449305        30                       0.10164043247535447
-48.98181033018081        81.83724252635541        30                       -0.07846660155396427
-51.36045937117508        80.34301108575677        30                       -0.08855993709868816
-39.19012284317967        81.56271391426213        30                       0.019683653133911946
-44.24943764882679        82.78333425635792        30                       -0.04000655174334543
-38.69920000029116        81.44336706992368        29.999999999999996       0.025313204981200273
-53.10729317663247        79.2268410663157         29.999999999999996       -0.07408226656652203
-46.42674274183014        83.29564843552652        30                       -0.06544940118183395
-42.82067106218375        84.07615480771288        30                       -0.05813727796858728
-37.65760092504988        82.35298293491735        30                       0.016035841396837877
-44.465771382113786       83.7391237377656         30                       -0.06062835036749949
-35.021793917873424       85.4906870746368         30                       -0.048860247574803506
-39.433966972420066       84.73040361257955        30                       -0.05455533993241818
-34.5278498696773         85.7162113806643         30                       -0.03620649022513925
-35.44746320208447        86.26743060057377        30                       -0.036369687677906826
-37.70281698178541        87.60915646997955        30                       -0.03782038339049591
-45.037160271456216       84.0705961705572         30                       -0.05960439103111985
-44.17818368830858        84.52828307502931        30                       -0.0566277778513726
-44.342026733218454       84.07653085177016        30                       -0.06053254593818208
-41.41232451083236        85.89263402830468        30                       -0.04784699501399345
-38.39805219305203        87.30910243972016        30                       -0.03963700642922993
-38.983685682861164       85.84407572807186        30                       -0.050092731171372404
-38.77325443277917        70.0927222944612         30                       0.3044174740459494
-37.782475079140426       69.59628222138122        30                       0.22400271741807545
-38.71574449852629        69.68454787458504        29.999999999999996       0.22012650648603685
-35.59925101129402        69.39091465243136        29.999999999999996       0.3566442363623048
-35.468689815474804       68.44501791880658        29.999999999999996       0.5515019560141691
-32.20644875579874        66.80267297400408        29.999999999999996       1.002698259344817
-35.278834349736286       67.0991028904497         30                       0.7865449269060725
-38.64000412316943        69.15621378866553        29.999999999999996       0.24766184138951003
-36.802489656536764       67.24379504557226        30                       0.6747695263824021
-38.385768678665826       67.36939875649249        30                       0.5639785035962784
-38.18164502475717        65.95888694493713        30                       0.8605529364684095
-35.9638864669388         64.84210784643754        29.999999999999996       1.208119685655701
-38.041457031052154       65.00857228956775        30                       1.0345621352729482
-41.43418854258205        67.57781529307036        30                       0.34069331986394896
-39.08757637719391        65.09074862686278        29.999999999999996       0.9441113081334941
-41.12103243249531        65.21836022601047        30                       0.7749468658816195
-41.47482699816959        67.59794768137765        30                       0.45752924422527963
-39.18006286000688        69.72774797845932        30                       0.3234258837935976
-41.46357349026156        67.60869040559453        29.999999999999996       0.45574043315097634
-41.401326095903194       67.6661648200715         30                       0.44779142452177534
-43.7362516410298         65.37819633763326        30                       0.7348815329367608
-35.02772389679619        65.34931870679021        30                       1.1561210143322176
-37.852718044457504       63.748749902223125       30                       1.300684407723515
-42.72241241109253        64.29353968215419        30                       0.9359917132552322
-40.8399166773331         63.35617456598312        30.000000000000004       1.376165323332498
-39.56093660941945        62.71194663859755        30                       1.6717525492029888
-44.12204992378695        64.9872331392776         30                       0.9110809868373465
-44.06864302737707        72.16012993443965        30                       0.12031480508538339
-47.17191626894817        76.42990291048642        30                       -0.013534854246608543
-52.515760750001355       78.28913782391558        30                       -0.04941656456716859
-47.0349336236537         76.3836942243016         30                       -0.012568593274890719
-49.26852243584959        74.29163351144987        30                       0.05902552114623355
-44.290518269106855       72.04714050627416        29.999999999999996       0.12581525315617104
-44.33943426286971        72.01902929200867        30                       0.12704437608848262
-49.7185583622481         73.8562379924697         30                       0.00942628341662785
-44.22574390273019        72.0184888568981         30                       0.129331867552013
-43.88061291216658        71.86232151544587        29.999999999999996       0.15044847294863145
-44.25508403228093        71.99113215820644        30                       0.13124028529205178
-46.50255771864578        69.83624812798524        30                       0.2519459323992328
-41.48844182148914        67.61946764875368        30                       0.5708720465935982
-41.50688913305236        67.60833622053563        29.999999999999996       0.5713697820237292
-46.920659879889726       69.42227757492968        30                       0.2493751630236391
-50.27234235268974        74.73409959975412        30                       -0.02323114738527911
-47.43613363160743        70.23940727528306        30                       0.14967845696801652
-44.598639000631735       65.74272064825139        29.999999999999996       0.6851893178962581
-42.77338692041239        61.051033031268204       30                       2.6103157624945768
-43.17349869336072        62.21720921348388        30                       2.1216764956382006
-42.37774803485016        60.853512370658194       30                       2.0400662151092983
-40.42680923320378        62.155996125035614       30                       1.9817186040450023
-42.64138739154712        60.66932794217566        29.999999999999996       2.490040550971641
-52.53486182836724        77.31897476938295        30                       -0.07439449400303534
-50.33158439371254        73.88311523279891        30                       -0.08446727884600433
-49.736814858698274       72.94818267851561        30                       -0.011720060809451344
-47.49193620299832        69.44790133070498        30                       0.1423003641456781
-46.93800724066657        68.57722686025629        30                       0.34328935011889933
-44.65085088791254        65.01149291949538        29.999999999999996       0.9241980773204743