% Model:              antena_microStript_AITOR.mph
% Version:            COMSOL 5.0.0.243
% Date:               Jan 3 2023, 12:53
% Dimension:          3
% Nodes:              11643
% Expressions:        1
% Description:        Multislice
% x                       y                        z                        Color
5.267356722608669E-15     73.23887728995597        40                       0.07741048938955047
6.187517592957486E-15     72.10034515722643        40                       0.1759702255656409
-0.2282592993431799       73.40716771138436        40                       0.07339669646937944
6.873598544764118E-15     71.24101432224083        40                       0.2606253434030636
-1.54985386912744         72.21297219239413        40.00000000000001        -0.17716515761909468
-1.5693008292401391       72.31464088692397        40.00000000000001        -0.05095480536872034
7.082680928608246E-15     70.99274293839548        39.99999999999999        0.24183389094618757
-1.1638925860887066       70.05315484451876        40                       -0.0323584591197664
-1.6246728991697736       72.26953007538283        40                       -0.05822770724865569
-1.6246728991697719       70.34253198367813        40                       -0.08852826166675169
-1.3074953541885663       72.5279299595647         40                       -0.029668874439131687
8.482058850583968E-15     69.26126664838795        40                       0.07835413945616532
4.995695667866495E-15     73.59312720772012        40                       -0.1732684839554476
-2.9103423591371085       71.22211406246356        40                       -0.0935849739814778
9.05829792929977E-15      89.03027655623697        40                       -0.007907783257385222
9.051076603483204E-15     89.02147200387716        40                       -0.007922992631326117
-0.012470262775277682     89.02112921409409        40                       0.031384722302590436
-0.2373471254295205       89.19138701935377        40.00000000000001        0.0320601758320253
1.1221476413582557E-14    91.63030860322654        40                       6.586474488408125E-5
-3.406128186114633        91.58365579534299        40                       0.12462165007437662
9.04326022777581E-15      89.01220199319954        40.00000000000001        0.03133351833730524
-3.577709270841927        91.05735056125677        40                       0.23109135496884786
-2.0671778804793          88.19733653037243        40                       0.05105153303046928
-3.571111143733618        87.59436547580509        40                       0.03873495910481792
-3.4546030622743604       91.43147160280847        40                       0.24617830616814068
-4.514972988196472        88.23569765387552        40.00000000000001        0.11741130158584683
-4.136330102927349        87.34607971614781        40                       0.0338797262161224
-4.940810768172755        86.99269260863647        40                       0.07035566957631255
-3.5681937675696815       86.06319913442903        40                       0.016669777773268387
-2.6862557262006637       84.03948648064974        40                       -0.011037991516648013
-3.5636357129392784       83.67093312550651        40                       -0.01859106057164555
-5.601863854878244        85.02148599545092        40                       0.0065123802938037
-4.777154212295674        83.11445377865994        40                       -0.028887780597925582
-6.541219092708673        82.30551211607474        40.00000000000001        -0.07394688779249631
-3.557413058890183        80.40501268926562        40.00000000000001        -0.09623098478327095
-3.3134445237857553       79.8541193970089         40                       -0.11250105223476235
-3.556160282144939        79.74750077520795        40                       -0.11577342368695288
-7.1071685918567375       80.66917264105106        40                       -0.12052734147963279
-5.426613112458731        78.85353364301045        40                       -0.14018580563981367
-7.0973697027012035       78.05500964209857        40                       -0.0634811806351084
-6.71644996234253         81.78802023859608        40                       -0.09001241413057853
-1.0270787273762494       85.86575459886814        40                       0.0213350605931902
-0.6110769920188254       84.91118870381936        40                       0.007951204231738349
-1.4630290449722632       84.55331663894096        40                       0.0011258178488648043
-2.070646524261377        82.6816617127162         40                       -0.04567054115231616
-1.2247660000760625       80.77162070425243        40                       -0.08995050964411633
-2.9679852436708916       80.00587053415462        40                       -0.10712583233035912
-3.5533269210221485       78.26042919430958        40                       -0.20392285413841807
-1.8465427698627326       76.60461434509831        40                       -0.29815040600108583
-3.5486848513505995       75.82406842490937        40                       -0.13339105864968306
-3.1406307163477596       79.47920379853038        40                       -0.13859707268081817
8.034110988252826E-15     85.16787848369061        40                       0.013694859873419243
7.021305881457379E-15     81.30962805836711        40                       -0.0757343376225577
6.008500774661928E-15     77.4513776330436         40                       -0.25029322439871976
-4.238218496833899        76.25755550386538        40                       -0.1239632800556704
7.612919028686714E-15     83.56336045131165        40                       -0.02061819235303638
6.182577829597603E-15     78.11451890942372        40                       -0.21120829123235993
-0.6164610166038366       73.98067593304818        40                       -0.27352245583970614
5.586247145649251E-15     75.84281520301471        40                       -0.4489042206213739
-7.859975977063982        78.53443507468258        40                       -0.1142926491521488
-5.011165062983403        74.63260729128277        40                       0.00763963426420616
-5.348706447885206        74.82442129122789        40                       -0.058201483470587595
-1.967577811779659        72.90303376060231        40                       0.07224612881774767
-3.804001023099247        75.61606609229304        40.00000000000001        0.06328831527462994
-7.379742746855316        77.82496447320169        40                       -0.04699527008458328
-5.096886756780747        74.45239649895147        40                       -0.05585326445080506
-5.145042552996213        74.52353926783262        40                       -0.05974604256575122
-12.217884944154932       74.41343642230855        40                       0.017804092815387466
-10.814610212174811       75.7287549565742         40                       -0.03821345005830393
-11.375978066286866       73.18599483110724        40                       0.0454741785581471
-10.006469715269986       76.49121763728157        40                       -0.08659161819678311
-7.663936225819298        76.54683214423524        40                       -0.0953604818298984
-8.251502406238767        73.9153215261243         40                       -0.049523873695033416
-8.947500106695955        77.50173708715754        40                       -0.11640921337980545
-16.85108085599965        70.14587679871455        40                       0.6998381623083357
-14.53309203152289        72.2667738396315         39.99999999999999        0.1913400234126056
-15.436778847454871       68.11299214374323        40                       1.0799504156535868
-14.498045338434927       72.29905573032077        40                       0.1816229518761635
-11.914357412494306       70.72924134548674        40                       0.5422915665207859
-12.27653709447579        69.08275181662071        40                       0.7655750289598442
-14.443501472177914       72.34984230575544        39.99999999999999        0.1700015133191881
-9.427841851174652        70.34574791233938        40.00000000000001        0.5365454853910641
-8.941361803531208        70.80173575893372        40                       0.46783049054113407
-9.135973916320111        69.92022479120075        40                       0.4775340641600134
-7.230158145649968        72.41621855396936        40                       0.13413332640336065
-5.1785623660373625       74.37394937248985        40                       -0.10159191788806436
-6.014190605678646        70.63145251223912        40                       0.22382490269077765
-9.977583064595976        73.52720560196761        40                       0.007157946010012472
-5.229395536155608        74.50853480990271        40                       -0.11803045222006918
-10.19940711199914        69.63035174560238        40                       0.5656180608059598
-13.210524646771256       68.8095744612317         40                       0.8682893189396943
-8.651185548409432        70.03851398167907        40                       0.44281090675727375
-3.920257666053689        71.04247332934628        40                       0.07856498285860519
-18.20552715970457        68.91932599276124        40                       0.11657407657941676
-17.609542417938325       67.37042819502234        40                       0.0745731400510266
-1.8804501917816123       69.22090050554979        40                       0.18032444594550787
-3.6970010602490158       69.16005770942662        40                       0.29396554394590946
-2.56187147285326         69.83065738511503        40                       0.13150891732865172
-7.367631337145676        68.88597995039888        40.00000000000001        0.5240838900879407
-7.370542668547306        68.88572574184218        40.00000000000001        0.5242473731599494
-7.3687048225729415       68.88695070728845        40                       0.5239764420671928
-7.377228590284917        68.88485984262648        40                       0.5246233266515034
-11.020873891652816       68.37825178065049        40                       0.7400452207783403
-9.47853804748603         69.45885037947586        40                       0.45744285716806865
-12.45115029388972        68.11914521688547        40                       0.8245487672753742
-14.648160861027272       67.69102279476624        40                       0.9383412330085065
-3.0725662235716693       70.28316836286294        40                       0.06534913344642097
-5.308428663337124        70.16428761835354        40                       0.18191177841156017
-8.46232967394449         69.86757005221719        40                       0.34714895711686966
-8.968787917741837        69.81344817990265        40                       0.37126694829680934
-4.258684170056817        69.52944585976677        40                       0.2607824279731864
-7.371485229792427        68.88632317442352        40.00000000000001        0.5241777620791257
-17.27807396478904        67.06504129783384        40                       1.293924641611968
-18.212801248989784       67.40503983525129        40                       0.43603699633219123
-18.160697749013828       66.84002993371618        40                       0.28415677225920605
-18.45632942828827        66.99784302672751        40                       1.5437175583248053
-10.37768666101029        76.9938193344251         40                       -0.10408514787753917
-10.639139347841004       77.34916756490071        40                       -0.11595443144599309
-12.909997002267568       81.41613301466896        40                       -0.10068859146423983
-12.096196256469408       79.32505166765861        40                       -0.12381140514671296
-13.573685397051618       81.33636904712088        40                       -0.11979188249715916
-10.353889070466224       79.98335499961586        40                       -0.12951004158841461
-13.52794652206045        81.76875409274278        40                       -0.08796858861717938
-13.809171442260995       81.65621669462108        40                       -0.11641372893117782
-14.137865159018686       82.104391314911          40                       -0.07759764008725768
-15.233975872096334       81.0868482739614         40.00000000000001        -0.12607208829011124
-16.743603931062815       80.48344472900874        40                       -0.13212330297399927
-16.992560664975507       80.80962921235172        40                       -0.06174223403544997
-11.378436902950305       77.26018955889899        40                       -0.11346361515473133
-13.297152360260089       75.86002192068301        40                       -0.054579866514805245
-14.053783289338305       76.87824272024068        40                       -0.10405056662078091
-10.69181407702324        76.88239971638018        40                       -0.0938543055764836
-13.868993740313329       78.6561181892058         40                       -0.1151350972200971
-15.021813759625033       78.17788308759154        40                       -0.11755632840141328
-16.38429941629919        80.01448775461576        40                       -0.1284530009802844
-14.514543533134793       72.32090466924654        40                       0.18781963744926836
-14.52600921260502        72.33615259968678        39.99999999999999        0.18422321981402243
-16.119619366121064       76.52056928569073        40                       -0.09549312348243952
-16.25111354439869        74.62467562943623        40                       0.013326616849608668
-17.474248420243526       76.25411585804783        40                       0.06134916658492859
-14.202476753164914       75.50526946316597        40.00000000000001        -0.02371912501733956
-14.556702231366986       72.33011931542534        39.99999999999999        0.18476091544793322
-17.497802153557725       70.99330693486573        40                       0.4046877167554672
-17.945002959201148       71.58186746243541        40                       0.29931079325496524
-14.528223921590575       72.31534082928724        40                       0.18947113675403998
-17.043371019252486       80.36379292986432        40                       -0.050048340064796734
-17.379829476631112       77.2011461398386         40                       0.03544824337217173
-17.70846849072431        73.99923533117826        40                       0.17680774742954686
-18.02911050109755        70.7571689140403         40                       0.46875315082670377
-17.15776585452997        79.30095284796232        40                       -0.020484535970204103
-16.699265461055024       83.48804108995029        40                       -0.051249529945873465
-3.566503253442355        91.43992560740891        40                       0.41435048145840153
-6.889263428073111        88.39063280562937        40                       0.24148112156493984
-6.9617644871027          85.82156087788657        40                       0.06439057229964842
-6.983325749980496        85.11206532179638        40                       0.04416366258365267
-7.070165153492098        81.99668017383974        40                       -0.11281042874648678
-8.073541685607825        85.15729216773627        40                       0.0424013614608692
-10.246083035637533       83.83362365771308        40                       -0.0046077931216213855
-10.206931371265991       85.27451112062738        40                       0.08896164074117018
-7.07572494012972         81.81167140694748        40                       -0.12100300228250975
-7.357984397961896        81.82337082949611        40                       -0.1149365539553361
-10.300197614890898       81.98549614966215        40                       -0.05004942788737032
-13.055578422148894       82.07086088035742        40.00000000000001        -0.05391291049969217
-13.519507083020994       82.09156055240295        40                       -0.04342809289070734
-12.976107472348051       85.36067168210693        40                       0.0830210667713971
-13.465574866479933       83.98092394904421        40                       0.02955854493264483
-13.426146790052382       85.3793412485878         40                       0.09309771946995847
-8.378188539493035        86.62646878026476        40                       0.11199795385276581
-7.438134068831657        82.20627319721831        40                       -0.1036337363751256
-3.5646858338563487       91.49699812626548        40                       0.20457199936598341
-6.851899018980724        89.60685994557363        40                       0.14198130923385874
-10.136768670849504       87.64309729355925        40                       0.0885350468949046
-13.419242207249827       85.60405824673748        40                       0.04703723253402696
-3.657507984204323        91.44463909561657        39.99999999999999        0.20297880882108224
-8.771230263000344        88.46866326852154        40                       0.11246072178846392
-12.750543633414217       86.01618225064398        40                       0.053069957294684576
-13.764277501218704       85.3851949228652         40                       0.045369158338341604
-3.713511716947935        91.5726177207108         40                       -0.008284948093237253
-3.568208253552777        91.5795582254243         40                       -0.008001010460893396
-9.930420070694051        91.10282669345439        40.00000000000001        -0.02214827905432818
-6.930310993020522        91.3647240553212         40                       -0.015604452902741331
-10.295952000802606       91.06449331182054        40                       -0.02306827847915315
-11.555585662806088       89.00187392202218        40                       -0.015670918145195004
-10.753111935094086       91.00609984898162        40                       -0.024149252927103498
-15.902691929011286       90.24301979817558        40                       -0.035333905452934494
-13.65662484414912        90.60452243425148        40                       -0.03066913320802594
-15.055992679415592       88.31257851503644        40                       -0.021506175205241052
-13.966463959921533       85.84512206088496        40                       -0.005429961330345939
-13.434309646764671       85.92683430705866        40                       -0.005555369874782568
-13.593700793984315       89.24516476616405        40                       -0.026240029807844546
-16.790181955711965       85.35877390124719        40                       -0.02352208873099184
-16.878510628405515       87.12845750464214        40                       -0.030509045915191206
-17.01901033670531        90.04265532501309        40                       -0.03848046162717783
-20.682047307101563       84.96056551138636        40                       -0.1692652539756309
-19.873251568459914       84.656952380301          40                       -0.15281366680550987
-20.728692435894775       84.48425184386345        40                       -0.25226978397834343
-24.646093349627407       86.37044347578401        40                       -0.2504107850084792
-23.184267399215678       83.86653043966231        40                       -0.23325546044608203
-24.918644773626852       83.43023260997315        40.00000000000001        -0.22066621365816602
-21.496295183481017       85.25468467720792        40                       -0.18537935880731427
-21.006489164285163       81.75976012227619        40                       -0.08599937326086786
-17.82649037077929        80.6349639307695         40                       0.013689020205355408
-21.193673579304516       79.81256644811515        40                       0.03067172877644061
-24.951126126576902       83.09376759821956        40.00000000000001        -0.2009290007025417
-24.36281217504844        82.89829827750285        40                       -0.18259858680998337
-25.017990924419443       82.35851327073587        40                       -0.08042929060056929
-21.323133770513          78.51965587384959        40                       0.08438149390815078
-19.03314176673011        77.76075730945215        40                       0.13758667193427118
-21.593652904977667       75.65176485218414        40.00000000000001        0.10783367989430376
-18.854229463734736       82.64704237107026        40                       -0.1207211997300916
-25.478300153544225       83.26123749943591        40                       -0.11050109765196851
-26.23589084151948        84.72208044589364        40                       -0.16816868314012492
-23.37455003050841        79.16910263311203        40                       0.026408439967196214
-21.33315166129705        75.14278006402027        40                       0.12005914066816695
-19.303748063236874       71.12911797993202        40                       0.12388218330237309
-20.960456502700694       74.40117850637675        40.00000000000001        0.12188660701685053
-27.60330296476404        87.37580458531994        40                       -0.2060306744950302
-19.10149937070299        89.60993460884875        40                       -0.04403312565246743
-19.84855344502265        88.25112982279117        40                       -0.046424743393085756
-20.902483790553582       89.22092143162598        40                       -0.048238096988946946
-21.86184955327829        88.98413437228473        40                       -0.050695084240167304
-24.74627633907747        88.22178930825135        40                       -0.05912213107375014
-20.76665340307001        86.5814937513307         40                       -0.04891227804593625
-20.8728834783579         88.63115780090527        40.00000000000001        -0.04815193344588017
-30.56791624655081        72.57048579123645        40                       -0.10603519478852613
-30.394313523733135       72.9062475892562         40                       -0.2060189164903236
-29.885579088480547       72.30738471732403        40                       -0.11983014624895864
-29.230120775570708       72.03950968714912        40                       -0.14184841998607142
-30.152786707804303       73.35311847753886        40                       -0.2198755342754584
-29.679917517552056       74.2446061942507         40                       -0.20677176788401294
-27.03520365324107        71.16833874383948        40                       -0.17201988651395705
-24.744288986942543       70.20622402722113        40                       -0.231232352549267
-24.60095651600311        70.46990415339711        39.99999999999999        -0.6324181911093582
-24.162941683184737       69.9554815015285         40                       -0.24120525814861102
-23.57538127300468        69.68873305907272        40                       -0.2561912207247587
-24.386305987919684       70.84586615977418        40                       -0.6163990534704721
-23.898130827423962       71.71813495905022        40                       -1.067726017116379
-21.26837091782885        68.66738893755397        40                       -0.5368078577589442
-31.92317258918487        75.87050909972504        40                       -0.038707624094284396
-34.17608839475596        79.07987958002289        40                       0.1542923017489025
-34.04929894971738        79.32014886833915        40                       0.3703674938104223
-30.666281517647175       75.3710124623277         40                       -0.10363074011809784
-29.359007801505772       74.82176154971091        40                       -0.19181272009253553
-28.971107654345346       75.53945114728187        40                       -0.10387015730166504
-27.786517702723025       74.14346218344416        40                       -0.2795999446477454
-26.19278865680387        73.42035069623924        40                       -0.3849675322572268
-28.39214337557974        76.5606649032844         40                       -0.14204384243077717
-28.268991788735384       76.78215273717221        40                       -0.1315463650897554
-24.884689682198154       72.84136863067529        40                       -0.4512801238540931
-33.96299553357384        79.47635850252553        40                       0.3624815615112218
-33.337184074678134       80.64073844250258        40                       0.5387779059541205
-31.42736625384932        78.38267436417702        40                       0.15248008568851518
-28.85052086810413        77.2143472356217         40                       -0.09258546213628169
-29.77742717312791        78.53862068872098        40                       0.03742396552208795
-28.518567919421802       77.06747485793093        40                       -0.11047547765268277
-27.47409285069056        72.9124351554515         40                       -0.36012140970205797
-30.919127302279673       76.37713754333461        40                       -0.05656632085296051
-33.52439295692757        76.52541082280146        40                       0.0545923837724265
-33.16432345707697        75.13012140865342        40                       -0.0019610509683773477
-34.31434177267853        79.62401461790074        40                       0.17592622891612691
-35.08477845679141        82.67101545829976        40                       0.37464955074315776
-34.3829252539624         79.89729719806368        40.00000000000001        0.18616123500027704
-23.59054251867581        72.23965183162777        40                       -0.28761351082220804
-28.19105867079142        76.91535080392296        40                       -0.06134494053383753
-32.78151224926147        81.62761302220784        40                       0.26510246794131875
-21.665849513658028       70.28009027921577        40                       -0.42227674422775063
-25.112057960932383       73.7647277801901         40                       -0.19518187100192722
-32.04767146391467        80.86167436946477        40                       0.19550935112897105
-28.57675643593574        77.30401427504307        40                       -0.04621989917617804
-32.71447965948238        73.37400776088757        40                       0.029535459612689073
-18.97949197951483        67.60223048078983        40                       0.5993482167138945
-35.53037134184027        84.45416568220783        40                       0.32536888927577373
-32.02771252443077        85.849650686693          40                       -0.008868269306934908
-30.96587501853368        84.7512377537663         40                       -0.009827379695618556
-33.3280111307577         85.34965025201214        40                       -0.012039713433679062
-28.492641261281136       87.0940928986137         39.99999999999999        -0.0011286553611104776
-29.88397386809079        86.61534682843731        40                       -0.0042206902659302535
-28.53470378557581        82.19914787617304        40                       -0.008475166415855205
-26.39458454786346        79.99581550001409        40.00000000000001        0.001487372913187096
-31.163057730970458       81.21318239838551        40                       -0.011723815719808656
-25.059159947485426       78.60026308073203        40.00000000000001        0.00892544969653294
-24.059339263019936       75.85310377076794        40                       0.016409088118553093
-27.79105317121614        77.60153058193002        40                       0.0072132192530529205
-21.813805931494663       75.27542727095695        40.00000000000001        0.020897511041895682
-21.601685915558317       75.05478411562372        40                       0.02169827740984875
-22.032825021301267       74.901345356738          40.00000000000001        0.02071560210205369
-32.046583574400586       82.89150785241921        40.00000000000001        -0.011856997498729253
-27.340197931319423       69.9588171915154         40                       0.17780105100839802
-30.025471815361293       71.7454952140681         40                       0.03376940339604302
-21.57067971642459        67.42920857210714        40                       0.7579927614581088
-24.280971908947716       69.46562610059857        40                       0.2154174826882998
-30.356872624388153       70.44407830373976        40                       0.10311933569621298
-30.56012733964058        69.59801168401702        40                       0.1515085415357384
-31.845048657951157       71.00227497233992        40                       0.03312123818330366
-24.62577709134291        68.06707163085963        40                       0.4799888109916085
-24.837359597660857       67.15647594380422        40                       0.6717059412789211
-26.269239275902706       68.7590956990613         40                       0.24189862900123768
-27.502317689556428       69.2925878119851         40                       0.2070256502660568
-27.74957294860942        68.2144499503031         40                       0.259429845559898
-28.758498091431562       69.8072652453479         40                       0.15676056195760152
-27.948115873968828       67.36844870366113        40.00000000000001        0.4281537971050504
-28.06786430647919        66.8265645508988         40.00000000000001        0.5446572084423443
-28.896030595606423       67.746952433313          40                       0.2755866549252327
-30.806931204476015       68.53266423437148        40                       0.2075430001526823
-31.188916051985295       66.78154690226135        40.00000000000001        0.30473027440464934
-32.81095399278071        69.31018705063369        40                       0.11031512526181755
-31.235547934372967       66.57267379135244        40                       0.3482814122962061