% Model:              antena_microStript_AITOR.mph
% Version:            COMSOL 5.0.0.243
% Date:               Jan 11 2023, 12:09
% Dimension:          3
% Nodes:              11629
% Expressions:        1
% Description:        Multislice
% x                       y                        z                        Color
5.267356722608669E-15     73.23887728995597        40                       1.4950613662291679
6.187517592957486E-15     72.10034515722643        40                       2.111068611508756
-0.2282592993431799       73.40716771138436        40                       1.415373328474718
6.873598544764118E-15     71.24101432224083        40                       2.553601034828519
-1.54985386912744         72.21297219239413        40.00000000000001        2.060107671595245
-1.5693008292401391       72.31464088692397        40.00000000000001        1.9164446813345402
7.082680928608246E-15     70.99274293839548        39.99999999999999        2.8175611179096123
-1.1638925860887066       70.05315484451876        40                       3.682156097688233
-1.6246728991697736       72.26953007538283        40                       1.9527195486953135
-1.6246728991697719       70.34253198367813        40                       3.3647424365656002
-1.3074953541885663       72.5279299595647         40                       1.8150321338900004
8.482058850583968E-15     69.26126664838795        40                       4.670596324539984
4.995695667866495E-15     73.59312720772012        40                       1.190759951606042
-2.9103423591371085       71.22211406246356        40                       2.590054674879495
9.05829792929977E-15      89.03027655623697        40                       -0.0427737137682512
9.051076603483204E-15     89.02147200387716        40                       -0.04282191046474879
-0.012470262775277682     89.02112921409409        40                       -0.04946210400488652
-0.2373471254295205       89.19138701935377        40.00000000000001        -0.047638390757017215
1.1221476413582557E-14    91.63030860322654        40                       -0.0316777641744693
-3.406128186114633        91.58365579534299        40                       -0.0166178768273331
9.04326022777581E-15      89.01220199319954        40.00000000000001        -0.04954779467790291
-3.577709270841927        91.05735056125677        40                       -0.11853406978708557
-2.0671778804793          88.19733653037243        40                       -0.06555723077621739
-3.571111143733618        87.59436547580509        40                       -0.07041019330429743
-3.4546030622743604       91.43147160280847        40                       -0.12007853513890364
-4.514972988196472        88.23569765387552        40.00000000000001        -0.10571402947288783
-4.136330102927349        87.34607971614781        40                       -0.07302094858934938
-4.940810768172755        86.99269260863647        40                       -0.10305409613574745
-3.5681937675696815       86.06319913442903        40                       -0.07836024016497196
-2.6862557262006637       84.03948648064974        40                       -0.07424366506404972
-3.5636357129392784       83.67093312550651        40                       -0.06795014647801606
-5.601863854878244        85.02148599545092        40                       -0.07004450314472083
-4.777154212295674        83.11445377865994        40                       -0.062109104234114344
-6.541219092708673        82.30551211607474        40.00000000000001        -0.029188749859802163
-3.557413058890183        80.40501268926562        40.00000000000001        0.010612999797192007
-3.3134445237857553       79.8541193970089         40                       0.03184486379748345
-3.556160282144939        79.74750077520795        40                       0.03922743730600718
-7.1071685918567375       80.66917264105106        40                       0.0479770771507121
-5.426613112458731        78.85353364301045        40                       0.0869295702667135
-7.0973697027012035       78.05500964209857        40                       0.19876161069412773
-6.71644996234253         81.78802023859608        40                       -0.004826504529091736
-1.0270787273762494       85.86575459886814        40                       -0.0719450613026246
-0.6110769920188254       84.91118870381936        40                       -0.08076619520164569
-1.4630290449722632       84.55331663894096        40                       -0.08004340421094366
-2.070646524261377        82.6816617127162         40                       -0.036705837009051376
-1.2247660000760625       80.77162070425243        40                       -0.005832861496280865
-2.9679852436708916       80.00587053415462        40                       0.023154492761809017
-3.5533269210221485       78.26042919430958        40                       0.18158898179485075
-1.8465427698627326       76.60461434509831        40                       0.29519989841312794
-3.5486848513505995       75.82406842490937        40                       0.5128789951144334
-3.1406307163477596       79.47920379853038        40                       0.07093417923787951
8.034110988252826E-15     85.16787848369061        40                       -0.08037482378227556
7.021305881457379E-15     81.30962805836711        40                       -0.02261768373539786
6.008500774661928E-15     77.4513776330436         40                       0.2058158938075989
-4.238218496833899        76.25755550386538        40                       0.47334234293024924
7.612919028686714E-15     83.56336045131165        40                       -0.06966065597839506
6.182577829597603E-15     78.11451890942372        40                       0.14845908209289552
-0.6164610166038366       73.98067593304818        40                       1.0299321811133688
5.586247145649251E-15     75.84281520301471        40                       0.4916418849464746
-7.859975977063982        78.53443507468258        40                       0.20212259982514338
-5.011165062983403        74.63260729128277        40                       0.8763252697850025
-5.348706447885206        74.82442129122789        40                       0.8518715847514597
-1.967577811779659        72.90303376060231        40                       1.6482539054308882
-3.804001023099247        75.61606609229304        40.00000000000001        0.6655010777586353
-7.379742746855316        77.82496447320169        40                       0.2801105657500351
-5.096886756780747        74.45239649895147        40                       0.9560676142092804
-5.145042552996213        74.52353926783262        40                       0.9119768165016258
-12.217884944154932       74.41343642230855        40                       0.7850280477169003
-10.814610212174811       75.7287549565742         40                       0.5874297779161667
-11.375978066286866       73.18599483110724        40                       1.059324503504385
-10.006469715269986       76.49121763728157        40                       0.45889645468444384
-7.663936225819298        76.54683214423524        40                       0.4924522031516205
-8.251502406238767        73.9153215261243         40                       0.992474242360488
-8.947500106695955        77.50173708715754        40                       0.29375101335565346
-16.85108085599965        70.14587679871455        40                       2.325649047916967
-14.53309203152289        72.2667738396315         39.99999999999999        1.1576352973451023
-15.436778847454871       68.11299214374323        40                       3.9364918500408277
-14.498045338434927       72.29905573032077        40                       1.137495276727801
-11.914357412494306       70.72924134548674        40                       2.3666715533255074
-12.27653709447579        69.08275181662071        40                       3.516490683380975
-14.443501472177914       72.34984230575544        39.99999999999999        1.1076106957068501
-9.427841851174652        70.34574791233938        40.00000000000001        2.8898995218074273
-8.941361803531208        70.80173575893372        40                       2.6916009180714475
-9.135973916320111        69.92022479120075        40                       3.15450597673306
-7.230158145649968        72.41621855396936        40                       1.9399855330096225
-5.1785623660373625       74.37394937248985        40                       1.0068453624443146
-6.014190605678646        70.63145251223912        40                       2.852585893049456
-9.977583064595976        73.52720560196761        40                       1.0346524030869524
-5.229395536155608        74.50853480990271        40                       0.9254524843636157
-10.19940711199914        69.63035174560238        40                       3.263414305088152
-13.210524646771256       68.8095744612317         40                       3.6594168983639594
-8.651185548409432        70.03851398167907        40                       3.115121589846945
-3.920257666053689        71.04247332934628        40                       2.68794367448291
-18.20552715970457        68.91932599276124        40                       1.968056042102096
-17.609542417938325       67.37042819502234        40                       3.6693544708779955
-1.8804501917816123       69.22090050554979        40                       4.532199085112077
-3.6970010602490158       69.16005770942662        40                       4.547156597687896
-2.56187147285326         69.83065738511503        40                       3.8202129076905607
-7.367631337145676        68.88597995039888        40.00000000000001        4.612687660693195
-7.370542668547306        68.88572574184218        40.00000000000001        4.612743311747312
-7.3687048225729415       68.88695070728845        40                       4.6114055732484545
-7.377228590284917        68.88485984262648        40                       4.612941195774342
-11.020873891652816       68.37825178065049        40                       4.732646296580569
-9.47853804748603         69.45885037947586        40                       3.684105538640261
-12.45115029388972        68.11914521688547        40                       4.794498137016943
-14.648160861027272       67.69102279476624        40                       4.891611820549002
-3.0725662235716693       70.28316836286294        40                       3.2946187447752457
-5.308428663337124        70.16428761835354        40                       3.2905050363802313
-8.46232967394449         69.86757005221719        40                       3.309681712580018
-8.968787917741837        69.81344817990265        40                       3.3133164842159695
-4.258684170056817        69.52944585976677        40                       4.047872936371446
-7.371485229792427        68.88632317442352        40.00000000000001        4.6118197868710356
-17.27807396478904        67.06504129783384        40                       5.262695796303591
-18.212801248989784       67.40503983525129        40                       3.102421412822431
-18.160697749013828       66.84002993371618        40                       5.368867373445051
-18.45632942828827        66.99784302672751        40                       4.8732945816561655
-10.37768666101029        76.9938193344251         40                       0.3373545876665004
-10.639139347841004       77.34916756490071        40                       0.2782034389180891
-12.909997002267568       81.41613301466896        40                       -0.011985199059864263
-12.096196256469408       79.32505166765861        40                       0.09450277063458869
-13.573685397051618       81.33636904712088        40                       -0.02852898902050282
-10.353889070466224       79.98335499961586        40                       0.08378207517170799
-13.52794652206045        81.76875409274278        40                       -0.0302348902205166
-13.809171442260995       81.65621669462108        40                       -0.04830416845937553
-14.137865159018686       82.104391314911          40                       -0.04184078639618384
-15.233975872096334       81.0868482739614         40.00000000000001        -0.05591365166960913
-16.743603931062815       80.48344472900874        40                       -0.06686192305821857
-16.992560664975507       80.80962921235172        40                       -0.08192839739384483
-11.378436902950305       77.26018955889899        40                       0.2689042911511276
-13.297152360260089       75.86002192068301        40                       0.41709299059972366
-14.053783289338305       76.87824272024068        40                       0.23145720532676373
-10.69181407702324        76.88239971638018        40                       0.35246829449263806
-13.868993740313329       78.6561181892058         40                       0.10722491989988561
-15.021813759625033       78.17788308759154        40                       0.10037570252510788
-16.38429941629919        80.01448775461576        40                       -0.026899284380974123
-14.514543533134793       72.32090466924654        40                       1.1033288372449332
-14.52600921260502        72.33615259968678        39.99999999999999        1.0921676714239303
-16.119619366121064       76.52056928569073        40                       0.20157967273347022
-16.25111354439869        74.62467562943623        40                       0.5049894054462807
-17.474248420243526       76.25411585804783        40                       0.18668258910492735
-14.202476753164914       75.50526946316597        40.00000000000001        0.45921776180981355
-14.556702231366986       72.33011931542534        39.99999999999999        1.091971328443513
-17.497802153557725       70.99330693486573        40                       1.5351162271407692
-17.945002959201148       71.58186746243541        40                       1.0709525215513773
-14.528223921590575       72.31534082928724        40                       1.1063976059895781
-17.043371019252486       80.36379292986432        40                       -0.06336084226637557
-17.379829476631112       77.2011461398386         40                       0.1172102603278618
-17.70846849072431        73.99923533117826        40                       0.5753861309778192
-18.02911050109755        70.7571689140403         40                       1.6521689226768232
-17.15776585452997        79.30095284796232        40                       0.002155149814203481
-16.699265461055024       83.48804108995029        40                       -0.08465688921422672
-3.566503253442355        91.43992560740891        40                       -0.2189428333677302
-6.889263428073111        88.39063280562937        40                       -0.13580966219134274
-6.9617644871027          85.82156087788657        40                       -0.09704253954975278
-6.983325749980496        85.11206532179638        40                       -0.06710525266504619
-7.070165153492098        81.99668017383974        40                       0.0023337723917289917
-8.073541685607825        85.15729216773627        40                       -0.08291987907538143
-10.246083035637533       83.83362365771308        40                       -0.051897450679155355
-10.206931371265991       85.27451112062738        40                       -0.06996228309406398
-7.07572494012972         81.81167140694748        40                       0.02516815056180976
-7.357984397961896        81.82337082949611        40                       0.008068347024710439
-10.300197614890898       81.98549614966215        40                       0.026610240635928088
-13.055578422148894       82.07086088035742        40.00000000000001        -0.0215511199225294
-13.519507083020994       82.09156055240295        40                       -0.019072202770521865
-12.976107472348051       85.36067168210693        40                       -0.06415878757576061
-13.465574866479933       83.98092394904421        40                       -0.045050060513547645
-13.426146790052382       85.3793412485878         40                       -0.06152046437581081
-8.378188539493035        86.62646878026476        40                       -0.10279964701658797
-7.438134068831657        82.20627319721831        40                       -0.007408842720794383
-3.5646858338563487       91.49699812626548        40                       -0.010442691360037906
-6.851899018980724        89.60685994557363        40                       -0.006847457872175319
-10.136768670849504       87.64309729355925        40                       -0.013207549026680754
-13.419242207249827       85.60405824673748        40                       -0.02563922552464057
-3.657507984204323        91.44463909561657        39.99999999999999        -0.010549797230725133
-8.771230263000344        88.46866326852154        40                       -0.012356387622795284
-12.750543633414217       86.01618225064398        40                       -0.024691464395048844
-13.764277501218704       85.3851949228652         40                       -0.027145219046635305
-3.713511716947935        91.5726177207108         40                       0.20184163409280212
-3.568208253552777        91.5795582254243         40                       0.20179126852945814
-9.930420070694051        91.10282669345439        40.00000000000001        0.20323639665314436
-6.930310993020522        91.3647240553212         40                       0.20285114846655083
-10.295952000802606       91.06449331182054        40                       0.20327018541782121
-11.555585662806088       89.00187392202218        40                       0.1309773252548227
-10.753111935094086       91.00609984898162        40                       0.2032317765015881
-15.902691929011286       90.24301979817558        40                       0.20320237258575502
-13.65662484414912        90.60452243425148        40                       0.20345365252396555
-15.055992679415592       88.31257851503644        40                       0.1263604114792928
-13.966463959921533       85.84512206088496        40                       0.024370060106362786
-13.434309646764671       85.92683430705866        40                       0.024817838622989082
-13.593700793984315       89.24516476616405        40                       0.15524563552852494
-16.790181955711965       85.35877390124719        40                       0.020304880678633154
-16.878510628405515       87.12845750464214        40                       0.09356494047194008
-17.01901033670531        90.04265532501309        40                       0.20300510235302113
-20.682047307101563       84.96056551138636        40                       -0.10442917018039906
-19.873251568459914       84.656952380301          40                       -0.10335242283474072
-20.728692435894775       84.48425184386345        40                       -0.23529753885414362
-24.646093349627407       86.37044347578401        40                       -0.11025136331879315
-23.184267399215678       83.86653043966231        40                       -0.25562630421021115
-24.918644773626852       83.43023260997315        40.00000000000001        -0.27086588503909553
-21.496295183481017       85.25468467720792        40                       -0.10586817358176834
-21.006489164285163       81.75976012227619        40                       -0.16504526714111553
-17.82649037077929        80.6349639307695         40                       -0.08235020136714945
-21.193673579304516       79.81256644811515        40                       -0.0860913524830213
-24.951126126576902       83.09376759821956        40.00000000000001        -0.2622791154590945
-24.36281217504844        82.89829827750285        40                       -0.24702345842342008
-25.017990924419443       82.35851327073587        40                       -0.16446134102637577
-21.323133770513          78.51965587384959        40                       -0.01707437345632725
-19.03314176673011        77.76075730945215        40                       0.06656035409533745
-21.593652904977667       75.65176485218414        40.00000000000001        0.1137856594204665
-18.854229463734736       82.64704237107026        40                       -0.15432439679260246
-25.478300153544225       83.26123749943591        40                       -0.18427134506153697
-26.23589084151948        84.72208044589364        40                       -0.19914674333043006
-23.37455003050841        79.16910263311203        40                       -0.0958603217662743
-21.33315166129705        75.14278006402027        40                       0.14400127480280153
-19.303748063236874       71.12911797993202        40                       0.8926399967243077
-20.960456502700694       74.40117850637675        40.00000000000001        0.2839821762134787
-27.60330296476404        87.37580458531994        40                       -0.07738015008620157
-19.10149937070299        89.60993460884875        40                       0.20423692239313462
-19.84855344502265        88.25112982279117        40                       0.15963969534687536
-20.902483790553582       89.22092143162598        40                       0.20546848117718894
-21.86184955327829        88.98413437228473        40                       0.2069132702250443
-24.74627633907747        88.22178930825135        40                       0.2113724388896459
-20.76665340307001        86.5814937513307         40                       0.10331190492151388
-20.8728834783579         88.63115780090527        40.00000000000001        0.18451597599031247
-30.56791624655081        72.57048579123645        40                       0.0713429108157247
-30.394313523733135       72.9062475892562         40                       -0.03926764094220512
-29.885579088480547       72.30738471732403        40                       0.07720428615581326
-29.230120775570708       72.03950968714912        40                       0.09504464227657394
-30.152786707804303       73.35311847753886        40                       -0.0822541392196838
-29.679917517552056       74.2446061942507         40                       0.02013736232528361
-27.03520365324107        71.16833874383948        40                       0.31149057708372363
-24.744288986942543       70.20622402722113        40                       0.6211351272346342
-24.60095651600311        70.46990415339711        39.99999999999999        0.3521917337959013
-24.162941683184737       69.9554815015285         40                       0.6884679623405827
-23.57538127300468        69.68873305907272        40                       0.7788205639107886
-24.386305987919684       70.84586615977418        40                       0.266199259638645
-23.898130827423962       71.71813495905022        40                       0.41340055528555775
-21.26837091782885        68.66738893755397        40                       1.6677691826015968
-31.92317258918487        75.87050909972504        40                       -0.0704383051100293
-34.17608839475596        79.07987958002289        40                       0.09397462030165886
-34.04929894971738        79.32014886833915        40                       0.17638348659587125
-30.666281517647175       75.3710124623277         40                       -0.09404205716709563
-29.359007801505772       74.82176154971091        40                       -0.09521337561862149
-28.971107654345346       75.53945114728187        40                       -0.026320330730629282
-27.786517702723025       74.14346218344416        40                       -0.10823551160726483
-26.19278865680387        73.42035069623924        40                       -0.08710250466707216
-28.39214337557974        76.5606649032844         40                       -0.12471314977695326
-28.268991788735384       76.78215273717221        40                       -0.09608924996576354
-24.884689682198154       72.84136863067529        40                       0.02128007782566811
-33.96299553357384        79.47635850252553        40                       0.1623587420977349
-33.337184074678134       80.64073844250258        40                       0.25594633127913236
-31.42736625384932        78.38267436417702        40                       0.0010552989567603754
-28.85052086810413        77.2143472356217         40                       -0.12629536461478313
-29.77742717312791        78.53862068872098        40                       -0.057900412821353005
-28.518567919421802       77.06747485793093        40                       -0.1291373200205099
-27.47409285069056        72.9124351554515         40                       -0.09298202678077253
-30.919127302279673       76.37713754333461        40                       -0.0935473508017188
-33.52439295692757        76.52541082280146        40                       0.008647120293042229
-33.16432345707697        75.13012140865342        40                       -0.03401103226904268
-34.31434177267853        79.62401461790074        40                       0.11173709913682767
-35.08477845679141        82.67101545829976        40                       0.28336044385422765
-34.3829252539624         79.89729719806368        40.00000000000001        0.12130449960242565
-23.59054251867581        72.23965183162777        40                       0.2649432688307084
-28.19105867079142        76.91535080392296        40                       -0.0928566060831121
-32.78151224926147        81.62761302220784        40                       0.09024875817036984
-21.665849513658028       70.28009027921577        40                       0.6095310724901262
-25.112057960932383       73.7647277801901         40                       0.002572712888650068
-32.04767146391467        80.86167436946477        40                       0.03106365196102453
-28.57675643593574        77.30401427504307        40                       -0.10450809369755087
-32.71447965948238        73.37400776088757        40                       0.05173461465756622
-18.97949197951483        67.60223048078983        40                       3.0489443747232334
-35.53037134184027        84.45416568220783        40                       0.27322623861703393
-32.02771252443077        85.849650686693          40                       0.023651489217726862
-30.96587501853368        84.7512377537663         40                       -0.0051236380739912435
-33.3280111307577         85.34965025201214        40                       0.030978471924999425
-28.492641261281136       87.0940928986137         39.99999999999999        0.0036241158143646953
-29.88397386809079        86.61534682843731        40                       0.011160746954152721
-28.53470378557581        82.19914787617304        40                       -0.07722355374810402
-26.39458454786346        79.99581550001409        40.00000000000001        -0.08863152211247095
-31.163057730970458       81.21318239838551        40                       -0.06388327543104604
-25.059159947485426       78.60026308073203        40.00000000000001        -0.09706615749807361
-24.059339263019936       75.85310377076794        40                       0.010333080181839711
-27.79105317121614        77.60153058193002        40                       -0.08313176486498211
-21.813805931494663       75.27542727095695        40.00000000000001        0.04942806406427151
-21.601685915558317       75.05478411562372        40                       0.05943489527550416
-22.032825021301267       74.901345356738          40.00000000000001        0.062068391036509026
-32.046583574400586       82.89150785241921        40.00000000000001        -0.02472769706327874
-27.340197931319423       69.9588171915154         40                       0.7881962075183153
-30.025471815361293       71.7454952140681         40                       0.2703433081925949
-21.57067971642459        67.42920857210714        40                       3.479000021893717
-24.280971908947716       69.46562610059857        40                       1.11541073348558
-30.356872624388153       70.44407830373976        40                       0.459691909918282
-30.56012733964058        69.59801168401702        40                       0.6176497908804663
-31.845048657951157       71.00227497233992        40                       0.269836891223175
-24.62577709134291        68.06707163085963        40                       1.9952748130732196
-24.837359597660857       67.15647594380422        40                       2.8216034547107753
-26.269239275902706       68.7590956990613         40                       1.1191820174203226
-27.502317689556428       69.2925878119851         40                       0.8996714101115593
-27.74957294860942        68.2144499503031         40                       1.1211846393053588
-28.758498091431562       69.8072652453479         40                       0.7206209841504967
-27.948115873968828       67.36844870366113        40.00000000000001        1.6345121882593356
-28.06786430647919        66.8265645508988         40.00000000000001        2.122906466554973
-28.896030595606423       67.746952433313          40                       1.1227032889420596
-30.806931204476015       68.53266423437148        40                       0.7844931650554865
-31.188916051985295       66.78154690226135        40.00000000000001        1.1250422215020734
-32.81095399278071        69.31018705063369        40                       0.49836871944947936
-31.235547934372967       66.57267379135244        40                       1.2474881402250169
-31.26319113354665        66.44105071893351        40.00000000000001        1.384705844944184
-31.45883964729444        66.65694045951287        40.00000000000001        1.1252989938307414