% Model:              antena_microStript_AITOR.mph
% Version:            COMSOL 5.0.0.243
% Date:               Mar 19 2023, 10:17
% Dimension:          3
% Nodes:              1000
% Expressions:        1
% Description:        Electric field, x component
% Length unit:        mm
% x                       y                        z                        emw.Ex (V/m) @ freq=1.575
-89.99999999999997        -89.99999999999997       49.99999999999998        NaN
-69.99999999999999        -89.99999999999997       49.99999999999998        NaN
-49.99999999999998        -89.99999999999997       49.99999999999998        NaN
-30                       -89.99999999999997       49.99999999999998        NaN
-10                       -89.99999999999997       49.99999999999998        NaN
10                        -89.99999999999997       49.99999999999998        NaN
30                        -89.99999999999997       49.99999999999998        NaN
49.99999999999998         -89.99999999999997       49.99999999999998        NaN
69.99999999999999         -89.99999999999997       49.99999999999998        NaN
89.99999999999997         -89.99999999999997       49.99999999999998        NaN
-89.99999999999997        -69.99999999999999       49.99999999999998        NaN
-69.99999999999999        -69.99999999999999       49.99999999999998        NaN
-49.99999999999998        -69.99999999999999       49.99999999999998        0.021924740668091365-0.14584236259649397j
-30                       -69.99999999999999       49.99999999999998        0.06609591447209674+0.20546035277595667j
-10                       -69.99999999999999       49.99999999999998        -0.13426333861539277-0.15387830228566535j
10                        -69.99999999999999       49.99999999999998        -0.0723310017134107-0.031131066357577536j
30                        -69.99999999999999       49.99999999999998        -0.08109802237905131-0.34277723668091514j
49.99999999999998         -69.99999999999999       49.99999999999998        0.021976869010298227+0.11230001654360121j
69.99999999999999         -69.99999999999999       49.99999999999998        NaN
89.99999999999997         -69.99999999999999       49.99999999999998        NaN
-89.99999999999997        -49.99999999999998       49.99999999999998        NaN
-69.99999999999999        -49.99999999999998       49.99999999999998        -0.0066408536187444675-0.11138391300548776j
-49.99999999999998        -49.99999999999998       49.99999999999998        0.024832478868726582+0.41483486795463054j
-30                       -49.99999999999998       49.99999999999998        -1.3308004421218147+2.8625147236876867j
-10                       -49.99999999999998       49.99999999999998        -0.6085241208285787+0.85792630993792j
10                        -49.99999999999998       49.99999999999998        0.020718879724235972-1.757948481343295j
30                        -49.99999999999998       49.99999999999998        1.7283705762576391-1.7366296999854283j
49.99999999999998         -49.99999999999998       49.99999999999998        0.2164764542265883-0.6629016543036326j
69.99999999999999         -49.99999999999998       49.99999999999998        0.0036005297535610867+0.15415424933255514j
89.99999999999997         -49.99999999999998       49.99999999999998        NaN
-89.99999999999997        -30                      49.99999999999998        NaN
-69.99999999999999        -30                      49.99999999999998        0.08872929477121123+0.33361374586432363j
-49.99999999999998        -30                      49.99999999999998        -2.2809784799924975+2.692568756796111j
-30                       -30                      49.99999999999998        -1.6008103400333533+2.692591156492478j
-10                       -30                      49.99999999999998        -0.6253022086552789+0.9066418346958436j
10                        -30                      49.99999999999998        0.570329206022228-1.0196641936682045j
30                        -30                      49.99999999999998        1.7729556210662687-2.296133960919213j
49.99999999999998         -30                      49.99999999999998        2.04678848624517-2.8143650838675276j
69.99999999999999         -30                      49.99999999999998        -0.06022897728970953-0.20447134338789497j
89.99999999999997         -30                      49.99999999999998        NaN
-89.99999999999997        -10                      49.99999999999998        NaN
-69.99999999999999        -10                      49.99999999999998        -0.13011876176431592-0.18681324737892413j
-49.99999999999998        -10                      49.99999999999998        -0.8399202183503442+1.7116456549202332j
-30                       -10                      49.99999999999998        -0.8416012458788587+1.5758875651039883j
-10                       -10                      49.99999999999998        -0.3351363651469293+0.59983686829611j
10                        -10                      49.99999999999998        0.2605970789399593-0.5356295298168323j
30                        -10                      49.99999999999998        0.8792413523560776-1.4438642132879878j
49.99999999999998         -10                      49.99999999999998        0.7041037936611184-1.64278948255481j
69.99999999999999         -10                      49.99999999999998        0.24019921975041472+0.12030616884163081j
89.99999999999997         -10                      49.99999999999998        NaN
-89.99999999999997        10                       49.99999999999998        NaN
-69.99999999999999        10                       49.99999999999998        0.04612589613573048+0.2608044212829005j
-49.99999999999998        10                       49.99999999999998        0.2001657378078985-1.0530754433486786j
-30                       10                       49.99999999999998        0.5985084951910085-0.5686953770178169j
-10                       10                       49.99999999999998        0.14739997636288127-0.2493071549958188j
10                        10                       49.99999999999998        -0.45613783010858944+0.293185057132872j
30                        10                       49.99999999999998        -0.8131337475919516+0.6006117020522014j
49.99999999999998         10                       49.99999999999998        -0.4586391991678524+1.0660544122689681j
69.99999999999999         10                       49.99999999999998        -0.12054905421112924-0.16482345979967308j
89.99999999999997         10                       49.99999999999998        NaN
-89.99999999999997        30                       49.99999999999998        NaN
-69.99999999999999        30                       49.99999999999998        0.04406284316340514-0.2093108699846541j
-49.99999999999998        30                       49.99999999999998        2.3795269762487665-1.7233022002937062j
-30                       30                       49.99999999999998        1.620714155048107-1.7403811531600535j
-10                       30                       49.99999999999998        0.3925560239627992-1.00050086510756j
10                        30                       49.99999999999998        -0.8761663780865033+0.6961753676409629j
30                        30                       49.99999999999998        -2.2161522460147793+1.577861329716281j
49.99999999999998         30                       49.99999999999998        -2.9247104055219264+1.1504462266848208j
69.99999999999999         30                       49.99999999999998        -0.03934848616100292+0.3946177405837298j
89.99999999999997         30                       49.99999999999998        NaN
-89.99999999999997        49.99999999999998        49.99999999999998        NaN
-69.99999999999999        49.99999999999998        49.99999999999998        -0.017966952369962208+0.11153207846070753j
-49.99999999999998        49.99999999999998        49.99999999999998        -0.17273831045847465-0.477268259737598j
-30                       49.99999999999998        49.99999999999998        1.6043090694977824-1.8130483639114132j
-10                       49.99999999999998        49.99999999999998        -0.25669680288704766-1.4154772559678994j
10                        49.99999999999998        49.99999999999998        -0.8828557879257144+0.9061102182503491j
30                        49.99999999999998        49.99999999999998        -1.6773011216277975+2.376325150448694j
49.99999999999998         49.99999999999998        49.99999999999998        -0.0655335953577438+0.4282114333003868j
69.99999999999999         49.99999999999998        49.99999999999998        -0.017682509322832603-0.08121630568262203j
89.99999999999997         49.99999999999998        49.99999999999998        NaN
-89.99999999999997        69.99999999999999        49.99999999999998        NaN
-69.99999999999999        69.99999999999999        49.99999999999998        NaN
-49.99999999999998        69.99999999999999        49.99999999999998        -0.08122678611563473+0.010010037669926586j
-30                       69.99999999999999        49.99999999999998        -0.11913469207584412-0.598453748896775j
-10                       69.99999999999999        49.99999999999998        -0.4686127202680254+0.16920372751390336j
10                        69.99999999999999        49.99999999999998        -0.3516541047928571-0.176395282626857j
30                        69.99999999999999        49.99999999999998        0.12895349745397838+0.0021373482637511154j
49.99999999999998         69.99999999999999        49.99999999999998        0.054916447139961806-0.0839054961872311j
69.99999999999999         69.99999999999999        49.99999999999998        NaN
89.99999999999997         69.99999999999999        49.99999999999998        NaN
-89.99999999999997        89.99999999999997        49.99999999999998        NaN
-69.99999999999999        89.99999999999997        49.99999999999998        NaN
-49.99999999999998        89.99999999999997        49.99999999999998        NaN
-30                       89.99999999999997        49.99999999999998        NaN
-10                       89.99999999999997        49.99999999999998        NaN
10                        89.99999999999997        49.99999999999998        NaN
30                        89.99999999999997        49.99999999999998        NaN
49.99999999999998         89.99999999999997        49.99999999999998        NaN
69.99999999999999         89.99999999999997        49.99999999999998        NaN
89.99999999999997         89.99999999999997        49.99999999999998        NaN
