% Model:              antena_microStript_AITOR.mph
% Version:            COMSOL 5.0.0.243
% Date:               Jan 11 2023, 12:12
% Dimension:          3
% Nodes:              11629
% Expressions:        1
% Description:        Multislice
% x                       y                        z                        Color
5.267356722608669E-15     73.23887728995597        40                       -3.1648911861880666
6.187517592957486E-15     72.10034515722643        40                       -4.523356607673761
-0.2282592993431799       73.40716771138436        40                       -2.9858236137286855
6.873598544764118E-15     71.24101432224083        40                       -5.539645340749859
-1.54985386912744         72.21297219239413        40.00000000000001        -4.2798822163819565
-1.5693008292401391       72.31464088692397        40.00000000000001        -3.9549291265038544
7.082680928608246E-15     70.99274293839548        39.99999999999999        -6.096814023286386
-1.1638925860887066       70.05315484451876        40                       -7.9014988133784625
-1.6246728991697736       72.26953007538283        40                       -4.025314137234728
-1.6246728991697719       70.34253198367813        40                       -7.124172266802914
-1.3074953541885663       72.5279299595647         40                       -3.7502716334329556
8.482058850583968E-15     69.26126664838795        40                       -9.889421515290412
4.995695667866495E-15     73.59312720772012        40                       -2.5950104923121007
-2.9103423591371085       71.22211406246356        40                       -5.253777613631021
9.05829792929977E-15      89.03027655623697        40                       0.08740119098271952
9.051076603483204E-15     89.02147200387716        40                       0.08771928501499864
-0.012470262775277682     89.02112921409409        40                       0.16285932753933088
-0.2373471254295205       89.19138701935377        40.00000000000001        0.1568305312944147
1.1221476413582557E-14    91.63030860322654        40                       -0.013656607843061695
-3.406128186114633        91.58365579534299        40                       0.2406448254615395
9.04326022777581E-15      89.01220199319954        40.00000000000001        0.16306464389304554
-3.577709270841927        91.05735056125677        40                       0.41633752438141725
-2.0671778804793          88.19733653037243        40                       0.19760786814640055
-3.571111143733618        87.59436547580509        40                       0.1677480716110471
-3.4546030622743604       91.43147160280847        40                       0.435437997486835
-4.514972988196472        88.23569765387552        40.00000000000001        0.2764260259128456
-4.136330102927349        87.34607971614781        40                       0.1575046905521128
-4.940810768172755        86.99269260863647        40                       0.2138170946367057
-3.5681937675696815       86.06319913442903        40                       0.13310763050867308
-2.6862557262006637       84.03948648064974        40                       0.07548991779562896
-3.5636357129392784       83.67093312550651        40                       0.036365156873866177
-5.601863854878244        85.02148599545092        40                       0.06348415935442753
-4.777154212295674        83.11445377865994        40                       -0.014253416032914495
-6.541219092708673        82.30551211607474        40.00000000000001        -0.14369856103966683
-3.557413058890183        80.40501268926562        40.00000000000001        -0.2454736074205443
-3.3134445237857553       79.8541193970089         40                       -0.3059986827714891
-3.556160282144939        79.74750077520795        40                       -0.3288209535575668
-7.1071685918567375       80.66917264105106        40                       -0.3685629971115516
-5.426613112458731        78.85353364301045        40                       -0.4930455185778415
-7.0973697027012035       78.05500964209857        40                       -0.7213649230953938
-6.71644996234253         81.78802023859608        40                       -0.21518536778590117
-1.0270787273762494       85.86575459886814        40                       0.16544602752367854
-0.6110769920188254       84.91118870381936        40                       0.15542885326095351
-1.4630290449722632       84.55331663894096        40                       0.12940257530699945
-2.070646524261377        82.6816617127162         40                       -0.034715175852373575
-1.2247660000760625       80.77162070425243        40                       -0.16331784369312968
-2.9679852436708916       80.00587053415462        40                       -0.27427655833229253
-3.5533269210221485       78.26042919430958        40                       -0.6644716256270636
-1.8465427698627326       76.60461434509831        40                       -0.9369089680013288
-3.5486848513505995       75.82406842490937        40                       -1.3578589358004645
-3.1406307163477596       79.47920379853038        40                       -0.39317994504200515
8.034110988252826E-15     85.16787848369061        40                       0.17410011175971996
7.021305881457379E-15     81.30962805836711        40                       -0.08546327587062433
6.008500774661928E-15     77.4513776330436         40                       -0.6855377501627705
-4.238218496833899        76.25755550386538        40                       -1.2744903576198952
7.612919028686714E-15     83.56336045131165        40                       0.09192970897856016
6.182577829597603E-15     78.11451890942372        40                       -0.545274805390858
-0.6164610166038366       73.98067593304818        40                       -2.3236609386607663
5.586247145649251E-15     75.84281520301471        40                       -1.2762828782587503
-7.859975977063982        78.53443507468258        40                       -0.7253576361472203
-5.011165062983403        74.63260729128277        40                       -2.0096802066241812
-5.348706447885206        74.82442129122789        40                       -1.9522938664234857
-1.967577811779659        72.90303376060231        40                       -3.419054011975809
-3.804001023099247        75.61606609229304        40.00000000000001        -1.6074253941295107
-7.379742746855316        77.82496447320169        40                       -0.8567917838887118
-5.096886756780747        74.45239649895147        40                       -2.1535973824153443
-5.145042552996213        74.52353926783262        40                       -2.0709995192912323
-12.217884944154932       74.41343642230855        40                       -1.9927623204878135
-10.814610212174811       75.7287549565742         40                       -1.5651113356535562
-11.375978066286866       73.18599483110724        40                       -2.4879431847307942
-10.006469715269986       76.49121763728157        40                       -1.3170489353434638
-7.663936225819298        76.54683214423524        40                       -1.2837210930336753
-8.251502406238767        73.9153215261243         40                       -2.3138467956093045
-8.947500106695955        77.50173708715754        40                       -0.9424222806049065
-16.85108085599965        70.14587679871455        40                       -4.5656371750077245
-14.53309203152289        72.2667738396315         39.99999999999999        -2.6520422294440262
-15.436778847454871       68.11299214374323        40                       -7.55528685650051
-14.498045338434927       72.29905573032077        40                       -2.6226878259789608
-11.914357412494306       70.72924134548674        40                       -4.566956275608162
-12.27653709447579        69.08275181662071        40                       -6.949817463705688
-14.443501472177914       72.34984230575544        39.99999999999999        -2.570018271180243
-9.427841851174652        70.34574791233938        40.00000000000001        -5.561444388756973
-8.941361803531208        70.80173575893372        40                       -5.209231364824022
-9.135973916320111        69.92022479120075        40                       -6.346097309175891
-7.230158145649968        72.41621855396936        40                       -3.995404651774033
-5.1785623660373625       74.37394937248985        40                       -2.233705046490942
-6.014190605678646        70.63145251223912        40                       -5.829216357979989
-9.977583064595976        73.52720560196761        40                       -2.4071538637452163
-5.229395536155608        74.50853480990271        40                       -2.0879811783506135
-10.19940711199914        69.63035174560238        40                       -6.499682179364122
-13.210524646771256       68.8095744612317         40                       -7.135482700081254
-8.651185548409432        70.03851398167907        40                       -6.267913506670483
-3.920257666053689        71.04247332934628        40                       -5.446416394666372
-18.20552715970457        68.91932599276124        40                       -4.11298361382969
-17.609542417938325       67.37042819502234        40                       -7.428529413657825
-1.8804501917816123       69.22090050554979        40                       -9.952413880308903
-3.6970010602490158       69.16005770942662        40                       -9.921219071837037
-2.56187147285326         69.83065738511503        40                       -8.409562848643406
-7.367631337145676        68.88597995039888        40.00000000000001        -9.891250069214415
-7.370542668547306        68.88572574184218        40.00000000000001        -9.891211732438522
-7.3687048225729415       68.88695070728845        40                       -9.888699952063865
-7.377228590284917        68.88485984262648        40                       -9.8911918015991
-11.020873891652816       68.37825178065049        40                       -9.867200029408682
-9.47853804748603         69.45885037947586        40                       -7.721527962683576
-12.45115029388972        68.11914521688547        40                       -9.873233038391536
-14.648160861027272       67.69102279476624        40                       -9.870022499359647
-3.0725662235716693       70.28316836286294        40                       -7.129939100241718
-5.308428663337124        70.16428761835354        40                       -7.071186530150863
-8.46232967394449         69.86757005221719        40                       -7.016998922888125
-8.968787917741837        69.81344817990265        40                       -7.006454391149773
-4.258684170056817        69.52944585976677        40                       -8.921945458960003
-7.371485229792427        68.88632317442352        40.00000000000001        -9.889499761067347
-17.27807396478904        67.06504129783384        40                       -10.175168594632993
-18.212801248989784       67.40503983525129        40                       -6.103173294723618
-18.160697749013828       66.84002993371618        40                       -10.407182210239295
-18.45632942828827        66.99784302672751        40                       -8.763642719101615
-10.37768666101029        76.9938193344251         40                       -1.08859858245979
-10.639139347841004       77.34916756490071        40                       -0.9392242328272457
-12.909997002267568       81.41613301466896        40                       -0.15217180217666632
-12.096196256469408       79.32505166765861        40                       -0.5404645036918369
-13.573685397051618       81.33636904712088        40                       -0.12719960248276388
-10.353889070466224       79.98335499961586        40                       -0.46477244716041455
-13.52794652206045        81.76875409274278        40                       -0.09427282983008717
-13.809171442260995       81.65621669462108        40                       -0.07540910188628719
-14.137865159018686       82.104391314911          40                       -0.034864034558795894
-15.233975872096334       81.0868482739614         40.00000000000001        -0.10950234092632413
-16.743603931062815       80.48344472900874        40                       -0.1610200692448662
-16.992560664975507       80.80962921235172        40                       -0.07047729288166044
-11.378436902950305       77.26018955889899        40                       -0.9322527173742218
-13.297152360260089       75.86002192068301        40                       -1.339570410381901
-14.053783289338305       76.87824272024068        40                       -0.9074343037663712
-10.69181407702324        76.88239971638018        40                       -1.118226265286062
-13.868993740313329       78.6561181892058         40                       -0.6052826390864762
-15.021813759625033       78.17788308759154        40                       -0.6433187234742375
-16.38429941629919        80.01448775461576        40                       -0.2614592090742174
-14.514543533134793       72.32090466924654        40                       -2.5564950408927416
-14.52600921260502        72.33615259968678        39.99999999999999        -2.5340534832266077
-16.119619366121064       76.52056928569073        40                       -0.8880693835777291
-16.25111354439869        74.62467562943623        40                       -1.5730632120835284
-17.474248420243526       76.25411585804783        40                       -0.8334946809437309
-14.202476753164914       75.50526946316597        40.00000000000001        -1.4161124653005328
-14.556702231366986       72.33011931542534        39.99999999999999        -2.5337808539627162
-17.497802153557725       70.99330693486573        40                       -3.379856427790278
-17.945002959201148       71.58186746243541        40                       -2.4865065793284717
-14.528223921590575       72.31534082928724        40                       -2.560809679794853
-17.043371019252486       80.36379292986432        40                       -0.14885295659416606
-17.379829476631112       77.2011461398386         40                       -0.6815291622932369
-17.70846849072431        73.99923533117826        40                       -1.6505077759784892
-18.02911050109755        70.7571689140403         40                       -3.5276344677913345
-17.15776585452997        79.30095284796232        40                       -0.3285128223788317
-16.699265461055024       83.48804108995029        40                       0.17940947266733573
-3.566503253442355        91.43992560740891        40                       0.7173377467237709
-6.889263428073111        88.39063280562937        40                       0.43278739252217185
-6.9617644871027          85.82156087788657        40                       0.18473403269563532
-6.983325749980496        85.11206532179638        40                       0.07050954215806501
-7.070165153492098        81.99668017383974        40                       -0.23555593167931987
-8.073541685607825        85.15729216773627        40                       0.13146689730908406
-10.246083035637533       83.83362365771308        40                       0.02939072734864677
-10.206931371265991       85.27451112062738        40                       0.1640457143223077
-7.07572494012972         81.81167140694748        40                       -0.29593621937250997
-7.357984397961896        81.82337082949611        40                       -0.25503193282313935
-10.300197614890898       81.98549614966215        40                       -0.2623411692718387
-13.055578422148894       82.07086088035742        40.00000000000001        -0.0988438613810752
-13.519507083020994       82.09156055240295        40                       -0.09064043076182617
-12.976107472348051       85.36067168210693        40                       0.256896351241124
-13.465574866479933       83.98092394904421        40                       0.11798237855301992
-13.426146790052382       85.3793412485878         40                       0.25734150287934293
-8.378188539493035        86.62646878026476        40                       0.3016283783388486
-7.438134068831657        82.20627319721831        40                       -0.1956097624705983
-3.5646858338563487       91.49699812626548        40                       0.40655495189115953
-6.851899018980724        89.60685994557363        40                       0.34298124764457216
-10.136768670849504       87.64309729355925        40                       0.2822494720598902
-13.419242207249827       85.60405824673748        40                       0.2166125130005611
-3.657507984204323        91.44463909561657        39.99999999999999        0.4047146236555492
-8.771230263000344        88.46866326852154        40                       0.3069724854164734
-12.750543633414217       86.01618225064398        40                       0.23574387852394868
-13.764277501218704       85.3851949228652         40                       0.2071321229371736
-3.713511716947935        91.5726177207108         40                       0.08786755756923732
-3.568208253552777        91.5795582254243         40                       0.08786354145487443
-9.930420070694051        91.10282669345439        40.00000000000001        0.08912513885550849
-6.930310993020522        91.3647240553212         40                       0.08907826433731901
-10.295952000802606       91.06449331182054        40                       0.08926345422248098
-11.555585662806088       89.00187392202218        40                       0.11208103750090584
-10.753111935094086       91.00609984898162        40                       0.08926789978207611
-15.902691929011286       90.24301979817558        40                       0.09023222346668734
-13.65662484414912        90.60452243425148        40                       0.09027546618417812
-15.055992679415592       88.31257851503644        40                       0.11476933388138988
-13.966463959921533       85.84512206088496        40                       0.14617822827103583
-13.434309646764671       85.92683430705866        40                       0.14628646468925235
-13.593700793984315       89.24516476616405        40                       0.10668562510833655
-16.790181955711965       85.35877390124719        40                       0.1433540349182951
-16.878510628405515       87.12845750464214        40                       0.12414033166174644
-17.01901033670531        90.04265532501309        40                       0.09054416135625483
-20.682047307101563       84.96056551138636        40                       0.2960232885332289
-19.873251568459914       84.656952380301          40                       0.2808506680405572
-20.728692435894775       84.48425184386345        40                       0.40968750398946907
-24.646093349627407       86.37044347578401        40                       0.37270665835830386
-23.184267399215678       83.86653043966231        40                       0.37384900462861687
-24.918644773626852       83.43023260997315        40.00000000000001        0.34838953163624936
-21.496295183481017       85.25468467720792        40                       0.31110533712241967
-21.006489164285163       81.75976012227619        40                       0.10719038959557368
-17.82649037077929        80.6349639307695         40                       -0.060076580428441446
-21.193673579304516       79.81256644811515        40                       -0.10156927614498512
-24.951126126576902       83.09376759821956        40.00000000000001        0.31294615954471694
-24.36281217504844        82.89829827750285        40                       0.2811263850391161
-25.017990924419443       82.35851327073587        40                       0.12971891274372532
-21.323133770513          78.51965587384959        40                       -0.3061374250065613
-19.03314176673011        77.76075730945215        40                       -0.5035273278649011
-21.593652904977667       75.65176485218414        40.00000000000001        -0.6294500348348375
-18.854229463734736       82.64704237107026        40                       0.17918184964910852
-25.478300153544225       83.26123749943591        40                       0.19612543614817177
-26.23589084151948        84.72208044589364        40                       0.26037976656968354
-23.37455003050841        79.16910263311203        40                       -0.10324745694026478
-21.33315166129705        75.14278006402027        40                       -0.7038541347311351
-19.303748063236874       71.12911797993202        40                       -2.211357449382534
-20.960456502700694       74.40117850637675        40.00000000000001        -0.9802188296939657
-27.60330296476404        87.37580458531994        40                       0.2864004422445717
-19.10149937070299        89.60993460884875        40                       0.09119387347787257
-19.84855344502265        88.25112982279117        40                       0.10463721386434334
-20.902483790553582       89.22092143162598        40                       0.09229890300741117
-21.86184955327829        88.98413437228473        40                       0.09299272723016737
-24.74627633907747        88.22178930825135        40                       0.09602376903250204
-20.76665340307001        86.5814937513307         40                       0.11788108459326255
-20.8728834783579         88.63115780090527        40.00000000000001        0.09832154983611457
-30.56791624655081        72.57048579123645        40                       -0.6120602639203536
-30.394313523733135       72.9062475892562         40                       -0.5427724257271151
-29.885579088480547       72.30738471732403        40                       -0.6944014223246965
-29.230120775570708       72.03950968714912        40                       -0.7735231663520197
-30.152786707804303       73.35311847753886        40                       -0.4737430690952546
-29.679917517552056       74.2446061942507         40                       -0.6144655380670001
-27.03520365324107        71.16833874383948        40                       -1.3582377587489267
-24.744288986942543       70.20622402722113        40                       -1.975782367686493
-24.60095651600311        70.46990415339711        39.99999999999999        -1.7540612238491264
-24.162941683184737       69.9554815015285         40                       -2.1288720159711914
-23.57538127300468        69.68873305907272        40                       -2.284629718375903
-24.386305987919684       70.84586615977418        40                       -1.5791372348958461
-23.898130827423962       71.71813495905022        40                       -2.043254488804916
-21.26837091782885        68.66738893755397        40                       -4.1303679663536315
-31.92317258918487        75.87050909972504        40                       -0.11243741542015773
-34.17608839475596        79.07987958002289        40                       0.07767925718687232
-34.04929894971738        79.32014886833915        40                       0.0978960375825695
-30.666281517647175       75.3710124623277         40                       -0.23154793572350277
-29.359007801505772       74.82176154971091        40                       -0.358983408690534
-28.971107654345346       75.53945114728187        40                       -0.39214313443783955
-27.786517702723025       74.14346218344416        40                       -0.5102164309173324
-26.19278865680387        73.42035069623924        40                       -0.6699068996206571
-28.39214337557974        76.5606649032844         40                       -0.21645275083148166
-28.268991788735384       76.78215273717221        40                       -0.2493101924021292
-24.884689682198154       72.84136863067529        40                       -0.9638238625163461
-33.96299553357384        79.47635850252553        40                       0.12282496556467867
-33.337184074678134       80.64073844250258        40                       0.10475449316769259
-31.42736625384932        78.38267436417702        40                       0.002314036279039991
-28.85052086810413        77.2143472356217         40                       -0.12328835578196419
-29.77742717312791        78.53862068872098        40                       -0.040441585220527126
-28.518567919421802       77.06747485793093        40                       -0.15297270184354428
-27.47409285069056        72.9124351554515         40                       -0.6599033350679413
-30.919127302279673       76.37713754333461        40                       -0.1146956799039647
-33.52439295692757        76.52541082280146        40                       -0.036863223997601766
-33.16432345707697        75.13012140865342        40                       -0.10271928125605415
-34.31434177267853        79.62401461790074        40                       0.10307356919895143
-35.08477845679141        82.67101545829976        40                       0.165267040854577
-34.3829252539624         79.89729719806368        40.00000000000001        0.11518315660719335
-23.59054251867581        72.23965183162777        40                       -1.2454309139308815
-28.19105867079142        76.91535080392296        40                       -0.16954983980261484
-32.78151224926147        81.62761302220784        40                       0.11039261478494902
-21.665849513658028       70.28009027921577        40                       -1.9916974260390332
-25.112057960932383       73.7647277801901         40                       -0.6399844322140664
-32.04767146391467        80.86167436946477        40                       0.09601828178098867
-28.57675643593574        77.30401427504307        40                       -0.11100404847591555
-32.71447965948238        73.37400776088757        40                       -0.3313040774341155
-18.97949197951483        67.60223048078983        40                       -5.797992565167767
-35.53037134184027        84.45416568220783        40                       0.13522300421890518
-32.02771252443077        85.849650686693          40                       0.0114547592275487
-30.96587501853368        84.7512377537663         40                       0.0259067512740654
-33.3280111307577         85.34965025201214        40                       0.014576095778758087
-28.492641261281136       87.0940928986137         39.99999999999999        0.0018980852273850887
-29.88397386809079        86.61534682843731        40                       0.005321341009027829
-28.53470378557581        82.19914787617304        40                       0.05145531829057718
-26.39458454786346        79.99581550001409        40.00000000000001        -0.030690584561896283
-31.163057730970458       81.21318239838551        40                       0.050483861211515435
-25.059159947485426       78.60026308073203        40.00000000000001        -0.0855874552424805
-24.059339263019936       75.85310377076794        40                       -0.4061828310448996
-27.79105317121614        77.60153058193002        40                       -0.09544754277760104
-21.813805931494663       75.27542727095695        40.00000000000001        -0.5437511981028579
-21.601685915558317       75.05478411562372        40                       -0.5736417266491165
-22.032825021301267       74.901345356738          40.00000000000001        -0.5772466452547329
-32.046583574400586       82.89150785241921        40.00000000000001        0.035856117960817675
-27.340197931319423       69.9588171915154         40                       -1.9446705798159398
-30.025471815361293       71.7454952140681         40                       -0.8882697681382686
-21.57067971642459        67.42920857210714        40                       -6.445192277718467
-24.280971908947716       69.46562610059857        40                       -2.5700887583789926
-30.356872624388153       70.44407830373976        40                       -1.3313219189327021
-30.56012733964058        69.59801168401702        40                       -1.5933796627643555
-31.845048657951157       71.00227497233992        40                       -0.8948094433911624
-24.62577709134291        68.06707163085963        40                       -4.10679528489262
-24.837359597660857       67.15647594380422        40                       -5.2710185992089365
-26.269239275902706       68.7590956990613         40                       -2.526909768651069
-27.502317689556428       69.2925878119851         40                       -2.1690836337580794
-27.74957294860942        68.2144499503031         40                       -2.4964509357494795
-28.758498091431562       69.8072652453479         40                       -1.806367584649695
-27.948115873968828       67.36844870366113        40.00000000000001        -3.3807778174907748
-28.06786430647919        66.8265645508988         40.00000000000001        -4.059438400847059
-28.896030595606423       67.746952433313          40                       -2.472522020648847
-30.806931204476015       68.53266423437148        40                       -1.9294202601188504
-31.188916051985295       66.78154690226135        40.00000000000001        -2.427925781762771
-32.81095399278071        69.31018705063369        40                       -1.3641709288537556
-31.235547934372967       66.57267379135244        40                       -2.6353859538566495
-31.26319113354665        66.44105071893351        40.00000000000001        -2.821751098228636
-31.45883964729444        66.65694045951287        40.00000000000001        -2.4225235948773403