% Model:              antena_microStript_AITOR.mph
% Version:            COMSOL 5.0.0.243
% Date:               Mar 21 2023, 09:02
% Dimension:          3
% Nodes:              1000
% Expressions:        1
% Description:        Electric field, x component
% Length unit:        mm
% x                       y                        z                        emw.Ex (V/m) @ freq=1.575
-89.99999999999997        -89.99999999999997       -89.99999999999997       NaN
-69.99999999999999        -89.99999999999997       -89.99999999999997       NaN
-49.99999999999998        -89.99999999999997       -89.99999999999997       NaN
-30                       -89.99999999999997       -89.99999999999997       NaN
-10                       -89.99999999999997       -89.99999999999997       NaN
10                        -89.99999999999997       -89.99999999999997       NaN
30                        -89.99999999999997       -89.99999999999997       NaN
49.99999999999998         -89.99999999999997       -89.99999999999997       NaN
69.99999999999999         -89.99999999999997       -89.99999999999997       NaN
89.99999999999997         -89.99999999999997       -89.99999999999997       NaN
-89.99999999999997        -69.99999999999999       -89.99999999999997       NaN
-69.99999999999999        -69.99999999999999       -89.99999999999997       NaN
-49.99999999999998        -69.99999999999999       -89.99999999999997       NaN
-30                       -69.99999999999999       -89.99999999999997       NaN
-10                       -69.99999999999999       -89.99999999999997       NaN
10                        -69.99999999999999       -89.99999999999997       NaN
30                        -69.99999999999999       -89.99999999999997       NaN
49.99999999999998         -69.99999999999999       -89.99999999999997       NaN
69.99999999999999         -69.99999999999999       -89.99999999999997       NaN
89.99999999999997         -69.99999999999999       -89.99999999999997       NaN
-89.99999999999997        -49.99999999999998       -89.99999999999997       NaN
-69.99999999999999        -49.99999999999998       -89.99999999999997       NaN
-49.99999999999998        -49.99999999999998       -89.99999999999997       NaN
-30                       -49.99999999999998       -89.99999999999997       NaN
-10                       -49.99999999999998       -89.99999999999997       NaN
10                        -49.99999999999998       -89.99999999999997       NaN
30                        -49.99999999999998       -89.99999999999997       NaN
49.99999999999998         -49.99999999999998       -89.99999999999997       NaN
69.99999999999999         -49.99999999999998       -89.99999999999997       NaN
89.99999999999997         -49.99999999999998       -89.99999999999997       NaN
-89.99999999999997        -30                      -89.99999999999997       NaN
-69.99999999999999        -30                      -89.99999999999997       NaN
-49.99999999999998        -30                      -89.99999999999997       NaN
-30                       -30                      -89.99999999999997       0.0027355497747724757-0.008232360121169596i
-10                       -30                      -89.99999999999997       -0.013169431796595486+0.039967389659895734i
10                        -30                      -89.99999999999997       0.016260541694085272-0.03763834642569724i
30                        -30                      -89.99999999999997       -0.002421779220063849+0.009064290987488639i
49.99999999999998         -30                      -89.99999999999997       NaN
69.99999999999999         -30                      -89.99999999999997       NaN
89.99999999999997         -30                      -89.99999999999997       NaN
-89.99999999999997        -10                      -89.99999999999997       NaN
-69.99999999999999        -10                      -89.99999999999997       NaN
-49.99999999999998        -10                      -89.99999999999997       NaN
-30                       -10                      -89.99999999999997       0.004453874715381879-0.006765558835832106i
-10                       -10                      -89.99999999999997       0.004064591607532302+0.009377621942148733i
10                        -10                      -89.99999999999997       0.013140308540122967-0.024518442813791223i
30                        -10                      -89.99999999999997       -0.01300966744440401+0.009847591067933748i
49.99999999999998         -10                      -89.99999999999997       NaN
69.99999999999999         -10                      -89.99999999999997       NaN
89.99999999999997         -10                      -89.99999999999997       NaN
-89.99999999999997        10                       -89.99999999999997       NaN
-69.99999999999999        10                       -89.99999999999997       NaN
-49.99999999999998        10                       -89.99999999999997       NaN
-30                       10                       -89.99999999999997       -0.0035606073329594885-0.04331201102991323i
-10                       10                       -89.99999999999997       0.02371574380594184-0.04823792383066134i
10                        10                       -89.99999999999997       -0.016236864688634865+0.0362977494893679i
30                        10                       -89.99999999999997       0.00835234990856859-0.019598193974852286i
49.99999999999998         10                       -89.99999999999997       NaN
69.99999999999999         10                       -89.99999999999997       NaN
89.99999999999997         10                       -89.99999999999997       NaN
-89.99999999999997        30                       -89.99999999999997       NaN
-69.99999999999999        30                       -89.99999999999997       NaN
-49.99999999999998        30                       -89.99999999999997       NaN
-30                       30                       -89.99999999999997       -0.003321504082942541+0.01811674535106362i
-10                       30                       -89.99999999999997       0.00641170732089529-0.006461322225119286i
10                        30                       -89.99999999999997       -0.005546695778440669+0.060977056767412365i
30                        30                       -89.99999999999997       -0.006980432088136736-0.013800733987579486i
49.99999999999998         30                       -89.99999999999997       NaN
69.99999999999999         30                       -89.99999999999997       NaN
89.99999999999997         30                       -89.99999999999997       NaN
-89.99999999999997        49.99999999999998        -89.99999999999997       NaN
-69.99999999999999        49.99999999999998        -89.99999999999997       NaN
-49.99999999999998        49.99999999999998        -89.99999999999997       NaN
-30                       49.99999999999998        -89.99999999999997       NaN
-10                       49.99999999999998        -89.99999999999997       NaN
10                        49.99999999999998        -89.99999999999997       NaN
30                        49.99999999999998        -89.99999999999997       NaN
49.99999999999998         49.99999999999998        -89.99999999999997       NaN
69.99999999999999         49.99999999999998        -89.99999999999997       NaN
89.99999999999997         49.99999999999998        -89.99999999999997       NaN
-89.99999999999997        69.99999999999999        -89.99999999999997       NaN
-69.99999999999999        69.99999999999999        -89.99999999999997       NaN
-49.99999999999998        69.99999999999999        -89.99999999999997       NaN
-30                       69.99999999999999        -89.99999999999997       NaN
-10                       69.99999999999999        -89.99999999999997       NaN
10                        69.99999999999999        -89.99999999999997       NaN
30                        69.99999999999999        -89.99999999999997       NaN
49.99999999999998         69.99999999999999        -89.99999999999997       NaN
69.99999999999999         69.99999999999999        -89.99999999999997       NaN
89.99999999999997         69.99999999999999        -89.99999999999997       NaN
-89.99999999999997        89.99999999999997        -89.99999999999997       NaN
-69.99999999999999        89.99999999999997        -89.99999999999997       NaN
-49.99999999999998        89.99999999999997        -89.99999999999997       NaN
-30                       89.99999999999997        -89.99999999999997       NaN
-10                       89.99999999999997        -89.99999999999997       NaN
10                        89.99999999999997        -89.99999999999997       NaN
30                        89.99999999999997        -89.99999999999997       NaN
49.99999999999998         89.99999999999997        -89.99999999999997       NaN
69.99999999999999         89.99999999999997        -89.99999999999997       NaN
89.99999999999997         89.99999999999997        -89.99999999999997       NaN
-89.99999999999997        -89.99999999999997       -69.99999999999999       NaN
-69.99999999999999        -89.99999999999997       -69.99999999999999       NaN
-49.99999999999998        -89.99999999999997       -69.99999999999999       NaN
-30                       -89.99999999999997       -69.99999999999999       NaN
-10                       -89.99999999999997       -69.99999999999999       NaN
10                        -89.99999999999997       -69.99999999999999       NaN
30                        -89.99999999999997       -69.99999999999999       NaN
49.99999999999998         -89.99999999999997       -69.99999999999999       NaN
69.99999999999999         -89.99999999999997       -69.99999999999999       NaN
89.99999999999997         -89.99999999999997       -69.99999999999999       NaN
-89.99999999999997        -69.99999999999999       -69.99999999999999       NaN
-69.99999999999999        -69.99999999999999       -69.99999999999999       NaN
-49.99999999999998        -69.99999999999999       -69.99999999999999       NaN
-30                       -69.99999999999999       -69.99999999999999       NaN
-10                       -69.99999999999999       -69.99999999999999       0.0028013206307339767-0.009903935711778136i
10                        -69.99999999999999       -69.99999999999999       -0.001565663311699412+0.011286560431377799i
30                        -69.99999999999999       -69.99999999999999       NaN
49.99999999999998         -69.99999999999999       -69.99999999999999       NaN
69.99999999999999         -69.99999999999999       -69.99999999999999       NaN
89.99999999999997         -69.99999999999999       -69.99999999999999       NaN
-89.99999999999997        -49.99999999999998       -69.99999999999999       NaN
-69.99999999999999        -49.99999999999998       -69.99999999999999       NaN
-49.99999999999998        -49.99999999999998       -69.99999999999999       -0.010835236040148008-0.0266673310491016i
-30                       -49.99999999999998       -69.99999999999999       0.03800327603940147-0.0904512396476211i
-10                       -49.99999999999998       -69.99999999999999       4.747305371353011E-4+0.013618042689895832i
10                        -49.99999999999998       -69.99999999999999       -0.015283794508745861-0.016344102655686324i
30                        -49.99999999999998       -69.99999999999999       -0.026901392085180886+0.036146818774988876i
49.99999999999998         -49.99999999999998       -69.99999999999999       0.0057873323164719555+0.035566629748327035i
69.99999999999999         -49.99999999999998       -69.99999999999999       NaN
89.99999999999997         -49.99999999999998       -69.99999999999999       NaN
-89.99999999999997        -30                      -69.99999999999999       NaN
-69.99999999999999        -30                      -69.99999999999999       NaN
-49.99999999999998        -30                      -69.99999999999999       0.01838814567368901+0.06054874814763955i
-30                       -30                      -69.99999999999999       -0.08139056581247142-0.02483779376389128i
-10                       -30                      -69.99999999999999       -0.17550247683298756+0.31750068621369776i
10                        -30                      -69.99999999999999       0.13022287679861155-0.4518715023090537i
30                        -30                      -69.99999999999999       0.1827044061123389-0.4986362796648053i
49.99999999999998         -30                      -69.99999999999999       -0.012274222748949792-0.07999796408939569i
69.99999999999999         -30                      -69.99999999999999       NaN
89.99999999999997         -30                      -69.99999999999999       NaN
-89.99999999999997        -10                      -69.99999999999999       NaN
-69.99999999999999        -10                      -69.99999999999999       0.013408243794120207+0.0038982763131590317i
-49.99999999999998        -10                      -69.99999999999999       -0.016523623988099385+0.043771854743884814i
-30                       -10                      -69.99999999999999       -0.30252694635367616+0.0844268480740979i
-10                       -10                      -69.99999999999999       -0.1333354372188012-0.0074598097541917485i
10                        -10                      -69.99999999999999       0.0693997146421712-0.15380246671431652i
30                        -10                      -69.99999999999999       0.26741126578384433-0.17291414655192827i
49.99999999999998         -10                      -69.99999999999999       0.030594391213501645-0.013633008838500715i
69.99999999999999         -10                      -69.99999999999999       -0.026529777233261387-0.008404257181130817i
89.99999999999997         -10                      -69.99999999999999       NaN
-89.99999999999997        10                       -69.99999999999999       NaN
-69.99999999999999        10                       -69.99999999999999       -0.02233720487424426-0.008255606277059065i
-49.99999999999998        10                       -69.99999999999999       -0.012767663656844438-0.024753809100916277i
-30                       10                       -69.99999999999999       -0.06652596153199283-0.42523715694318404i
-10                       10                       -69.99999999999999       6.070172547777974E-4-0.16535378152894303i
10                        10                       -69.99999999999999       -0.01841696920767425+0.05836671592115811i
30                        10                       -69.99999999999999       -0.07817991920932343+0.19623488240551998i
49.99999999999998         10                       -69.99999999999999       0.02056346779016941+0.03880377922101935i
69.99999999999999         10                       -69.99999999999999       0.008621525969506775-3.721463879074582E-4i
89.99999999999997         10                       -69.99999999999999       NaN
-89.99999999999997        30                       -69.99999999999999       NaN
-69.99999999999999        30                       -69.99999999999999       NaN
-49.99999999999998        30                       -69.99999999999999       -0.007921704342327918+6.171606332546486E-4i
-30                       30                       -69.99999999999999       0.02311512238322322-0.20665199147773594i
-10                       30                       -69.99999999999999       0.19393079320576245-0.19416832227302577i
10                        30                       -69.99999999999999       -0.045816186989799196+0.3687337792044958i
30                        30                       -69.99999999999999       -0.16461220101978066+0.18681962453075807i
49.99999999999998         30                       -69.99999999999999       -0.011760217906442577+0.0905494540870615i
69.99999999999999         30                       -69.99999999999999       NaN
89.99999999999997         30                       -69.99999999999999       NaN
-89.99999999999997        49.99999999999998        -69.99999999999999       NaN
-69.99999999999999        49.99999999999998        -69.99999999999999       NaN
-49.99999999999998        49.99999999999998        -69.99999999999999       0.0467302781794688-0.02553929212862348i
-30                       49.99999999999998        -69.99999999999999       -0.04439874441230943-0.016148261401298714i
-10                       49.99999999999998        -69.99999999999999       -0.03947766897689166-0.07328901512294766i
10                        49.99999999999998        -69.99999999999999       -0.006948077588065142+1.0826378315852148E-4i
30                        49.99999999999998        -69.99999999999999       0.06102886528344369-0.09501890636757515i
49.99999999999998         49.99999999999998        -69.99999999999999       0.021730742805340916-0.02088282106265161i
69.99999999999999         49.99999999999998        -69.99999999999999       NaN
89.99999999999997         49.99999999999998        -69.99999999999999       NaN
-89.99999999999997        69.99999999999999        -69.99999999999999       NaN
-69.99999999999999        69.99999999999999        -69.99999999999999       NaN
-49.99999999999998        69.99999999999999        -69.99999999999999       NaN
-30                       69.99999999999999        -69.99999999999999       NaN
-10                       69.99999999999999        -69.99999999999999       0.004270399692537391+0.00523737714939446i
10                        69.99999999999999        -69.99999999999999       0.006201293793563249-0.009497458434765172i
30                        69.99999999999999        -69.99999999999999       NaN
49.99999999999998         69.99999999999999        -69.99999999999999       NaN
69.99999999999999         69.99999999999999        -69.99999999999999       NaN
89.99999999999997         69.99999999999999        -69.99999999999999       NaN
-89.99999999999997        89.99999999999997        -69.99999999999999       NaN
-69.99999999999999        89.99999999999997        -69.99999999999999       NaN
-49.99999999999998        89.99999999999997        -69.99999999999999       NaN
-30                       89.99999999999997        -69.99999999999999       NaN
-10                       89.99999999999997        -69.99999999999999       NaN
10                        89.99999999999997        -69.99999999999999       NaN
30                        89.99999999999997        -69.99999999999999       NaN
49.99999999999998         89.99999999999997        -69.99999999999999       NaN
69.99999999999999         89.99999999999997        -69.99999999999999       NaN
89.99999999999997         89.99999999999997        -69.99999999999999       NaN
-89.99999999999997        -89.99999999999997       -49.99999999999998       NaN
-69.99999999999999        -89.99999999999997       -49.99999999999998       NaN
-49.99999999999998        -89.99999999999997       -49.99999999999998       NaN
-30                       -89.99999999999997       -49.99999999999998       NaN
-10                       -89.99999999999997       -49.99999999999998       NaN
10                        -89.99999999999997       -49.99999999999998       NaN
30                        -89.99999999999997       -49.99999999999998       NaN
49.99999999999998         -89.99999999999997       -49.99999999999998       NaN
69.99999999999999         -89.99999999999997       -49.99999999999998       NaN
89.99999999999997         -89.99999999999997       -49.99999999999998       NaN
-89.99999999999997        -69.99999999999999       -49.99999999999998       NaN
-69.99999999999999        -69.99999999999999       -49.99999999999998       NaN
-49.99999999999998        -69.99999999999999       -49.99999999999998       0.013139784432657342-0.05702252754448139i
-30                       -69.99999999999999       -49.99999999999998       0.013030554760109881+0.10373121275697447i
-10                       -69.99999999999999       -49.99999999999998       0.032336865972947076-0.010477366883490158i
10                        -69.99999999999999       -49.99999999999998       0.18811195765226468-0.16725677695532332i
30                        -69.99999999999999       -49.99999999999998       -0.038101666585958704-0.07656941870256384i
49.99999999999998         -69.99999999999999       -49.99999999999998       -0.03867760113306311+0.03648557396443353i
69.99999999999999         -69.99999999999999       -49.99999999999998       NaN
89.99999999999997         -69.99999999999999       -49.99999999999998       NaN
-89.99999999999997        -49.99999999999998       -49.99999999999998       NaN
-69.99999999999999        -49.99999999999998       -49.99999999999998       -0.011057063824278346-0.03803194515420056i
-49.99999999999998        -49.99999999999998       -49.99999999999998       -0.010661110380864688+0.3038979673132285i
-30                       -49.99999999999998       -49.99999999999998       -1.1439040863365468+0.7205335494284453i
-10                       -49.99999999999998       -49.99999999999998       -0.4806019274469687+0.36971204892753406i
10                        -49.99999999999998       -49.99999999999998       0.45546095957498844-0.4916190136489207i
30                        -49.99999999999998       -49.99999999999998       1.2741841729645929-0.7313746727313366i
49.99999999999998         -49.99999999999998       -49.99999999999998       0.05154753001575835-0.2664755901043018i
69.99999999999999         -49.99999999999998       -49.99999999999998       -0.023793225127251728+0.06414183755769065i
89.99999999999997         -49.99999999999998       -49.99999999999998       NaN
-89.99999999999997        -30                      -49.99999999999998       NaN
-69.99999999999999        -30                      -49.99999999999998       -0.042328256901911734+0.1130920639558175i
-49.99999999999998        -30                      -49.99999999999998       -1.5767606006245853+0.5250148787964831i
-30                       -30                      -49.99999999999998       -1.1072276495621325+0.27748723096360717i
-10                       -30                      -49.99999999999998       -0.37444592258442433+0.08293962721428735i
10                        -30                      -49.99999999999998       0.3515153071278596-0.21943003484129997i
30                        -30                      -49.99999999999998       1.099851728352296-0.45248465214930106i
49.99999999999998         -30                      -49.99999999999998       1.913759670201877-0.8332588346486918i
69.99999999999999         -30                      -49.99999999999998       0.06487794706292682-0.17444358991830644i
89.99999999999997         -30                      -49.99999999999998       NaN
-89.99999999999997        -10                      -49.99999999999998       NaN
-69.99999999999999        -10                      -49.99999999999998       -0.1280563863968783+0.004988402459499823i
-49.99999999999998        -10                      -49.99999999999998       -0.7188108354008507+0.12970347411892774i
-30                       -10                      -49.99999999999998       -0.5013635327847321-0.010796551705913066i
-10                       -10                      -49.99999999999998       -0.17604625453119604-0.04806582069608045i
10                        -10                      -49.99999999999998       0.15074154489014668-0.08898323657854243i
30                        -10                      -49.99999999999998       0.4641541893751974-0.11057851329014406i
49.99999999999998         -10                      -49.99999999999998       0.6996189149013461-0.2010901733313586i
69.99999999999999         -10                      -49.99999999999998       0.12089358687582602-2.4368774223618855E-4i
89.99999999999997         -10                      -49.99999999999998       NaN
-89.99999999999997        10                       -49.99999999999998       NaN
-69.99999999999999        10                       -49.99999999999998       0.04509468911355549-0.03614117009090731i
-49.99999999999998        10                       -49.99999999999998       0.390047881257062-0.5184233032075457i
-30                       10                       -49.99999999999998       0.2500581889391044-0.35397238469495423i
-10                       10                       -49.99999999999998       0.11466015919837268-0.16409059196988174i
10                        10                       -49.99999999999998       -0.11383780884373851+0.06723608728027375i
30                        10                       -49.99999999999998       -0.2572718748496054+0.24644267813000986i
49.99999999999998         10                       -49.99999999999998       -0.41483189484451655+0.43340378986008726i
69.99999999999999         10                       -49.99999999999998       0.004448656777094238+0.05999285538129455i
89.99999999999997         10                       -49.99999999999998       NaN
-89.99999999999997        30                       -49.99999999999998       NaN
-69.99999999999999        30                       -49.99999999999998       0.04919100838114657-0.17166956686970997i
-49.99999999999998        30                       -49.99999999999998       1.4074138468582644-1.0931322214131756i
-30                       30                       -49.99999999999998       0.9173417991423263-0.7075740189916344i
-10                       30                       -49.99999999999998       0.29800120998827756-0.2348599830049628i
10                        30                       -49.99999999999998       -0.26006415512691217+0.2175435022317288i
30                        30                       -49.99999999999998       -0.8480084093545471+0.6277278421741991i
49.99999999999998         30                       -49.99999999999998       -1.2623314644317907+1.175829628015956i
69.99999999999999         30                       -49.99999999999998       0.07360887287950652+0.030795397358551524i
89.99999999999997         30                       -49.99999999999998       NaN
-89.99999999999997        49.99999999999998        -49.99999999999998       NaN
-69.99999999999999        49.99999999999998        -49.99999999999998       -0.029225437997602435+0.06221738971752483i
-49.99999999999998        49.99999999999998        -49.99999999999998       0.13402562813566404-0.22922737571135815i
-30                       49.99999999999998        -49.99999999999998       1.1159804808450176-1.060169419937778i
-10                       49.99999999999998        -49.99999999999998       0.4059296154658826-0.3692113668973611i
10                        49.99999999999998        -49.99999999999998       -0.31798717389459036+0.5906001621221012i
30                        49.99999999999998        -49.99999999999998       -1.1145433902052782+0.8066413797592705i
49.99999999999998         49.99999999999998        -49.99999999999998       -0.0578242252750194+0.15627082290087324i
69.99999999999999         49.99999999999998        -49.99999999999998       0.0358532594450542-0.05660908383463737i
89.99999999999997         49.99999999999998        -49.99999999999998       NaN
-89.99999999999997        69.99999999999999        -49.99999999999998       NaN
-69.99999999999999        69.99999999999999        -49.99999999999998       NaN
-49.99999999999998        69.99999999999999        -49.99999999999998       -0.04856713077100808+0.05428136815633803i
-30                       69.99999999999999        -49.99999999999998       -0.012499091429976225-0.1325896126452524i
-10                       69.99999999999999        -49.99999999999998       -0.007271572770868619-0.025648446615785483i
10                        69.99999999999999        -49.99999999999998       0.03487671246446404-0.009112432519794211i
30                        69.99999999999999        -49.99999999999998       -0.06147923342012331+0.18964609131607005i
49.99999999999998         69.99999999999999        -49.99999999999998       0.0036570523782309544-0.05212319822864023i
69.99999999999999         69.99999999999999        -49.99999999999998       NaN
89.99999999999997         69.99999999999999        -49.99999999999998       NaN
-89.99999999999997        89.99999999999997        -49.99999999999998       NaN
-69.99999999999999        89.99999999999997        -49.99999999999998       NaN
-49.99999999999998        89.99999999999997        -49.99999999999998       NaN
-30                       89.99999999999997        -49.99999999999998       NaN
-10                       89.99999999999997        -49.99999999999998       NaN
10                        89.99999999999997        -49.99999999999998       NaN
30                        89.99999999999997        -49.99999999999998       NaN
49.99999999999998         89.99999999999997        -49.99999999999998       NaN
69.99999999999999         89.99999999999997        -49.99999999999998       NaN
89.99999999999997         89.99999999999997        -49.99999999999998       NaN
-89.99999999999997        -89.99999999999997       -30                      NaN
-69.99999999999999        -89.99999999999997       -30                      NaN
-49.99999999999998        -89.99999999999997       -30                      NaN
-30                       -89.99999999999997       -30                      0.04030719748623305-0.014765620708494607i
-10                       -89.99999999999997       -30                      -0.0015855329992780537+0.11428032496200008i
10                        -89.99999999999997       -30                      0.25792782498976874-0.22737923313972364i
30                        -89.99999999999997       -30                      -0.053707363389640786+0.03715298199873227i
49.99999999999998         -89.99999999999997       -30                      NaN
69.99999999999999         -89.99999999999997       -30                      NaN
89.99999999999997         -89.99999999999997       -30                      NaN
-89.99999999999997        -69.99999999999999       -30                      NaN