% Model:              antena_microStript_AITOR.mph
% Version:            COMSOL 5.0.0.243
% Date:               Mar 19 2023, 10:17
% Dimension:          3
% Nodes:              1000
% Expressions:        1
% Description:        Electric field, x component
% Length unit:        mm
% x                       y                        z                        emw.Ex (V/m) @ freq=1.575
-89.99999999999997        -89.99999999999997       30                       NaN
-69.99999999999999        -89.99999999999997       30                       NaN
-49.99999999999998        -89.99999999999997       30                       NaN
-30                       -89.99999999999997       30                       0.015260486083251309-0.06762191247237376i
-10                       -89.99999999999997       30                       0.16791402355626642+0.04061345983779819i
10                        -89.99999999999997       30                       0.031009148638167488+0.024849561497364715i
30                        -89.99999999999997       30                       -0.0256056846360701+0.08040938510504511i
49.99999999999998         -89.99999999999997       30                       NaN
69.99999999999999         -89.99999999999997       30                       NaN
89.99999999999997         -89.99999999999997       30                       NaN
-89.99999999999997        -69.99999999999999       30                       NaN
-69.99999999999999        -69.99999999999999       30                       NaN
-49.99999999999998        -69.99999999999999       30                       -0.010893836249955057-0.004498504298779599i
-30                       -69.99999999999999       30                       -0.8391525760782494-0.8566771435595657i
-10                       -69.99999999999999       30                       -0.34730496955058054+1.353916669332751i
10                        -69.99999999999999       30                       1.5606715918815488-0.6307475157867048i
30                        -69.99999999999999       30                       1.1941095162430226-0.3479717533048895i
49.99999999999998         -69.99999999999999       30                       -0.11771329886997578-0.06256343115767678i
69.99999999999999         -69.99999999999999       30                       NaN
89.99999999999997         -69.99999999999999       30                       NaN
-89.99999999999997        -49.99999999999998       30                       NaN
-69.99999999999999        -49.99999999999998       30                       0.012787704563918756+0.08307374196932335i
-49.99999999999998        -49.99999999999998       30                       -4.366248514431137+2.854143763152654i
-30                       -49.99999999999998       30                       -2.9873398330341225+3.2951859083354083i
-10                       -49.99999999999998       30                       -0.9409822374888636+1.0738830125855694i
10                        -49.99999999999998       30                       0.9764061711640108-1.1680824583953031i
30                        -49.99999999999998       30                       3.03387880248056-2.869226045364828i
49.99999999999998         -49.99999999999998       30                       4.3537730867009286-2.9423426219957785i
69.99999999999999         -49.99999999999998       30                       0.043960585608728-0.19280349900677948i
89.99999999999997         -49.99999999999998       30                       NaN
-89.99999999999997        -30                      30                       0.10319639118997682-0.17511778092009012i
-69.99999999999999        -30                      30                       -0.9468087713309279+0.8090861211088178i
-49.99999999999998        -30                      30                       -4.601896665224137+3.6425356800386703i
-30                       -30                      30                       -4.231796756834781+5.580385870366711i
-10                       -30                      30                       -1.0633720518784733+1.0526463751290214i
10                        -30                      30                       1.0718464696124774-1.2221375028845063i
30                        -30                      30                       4.107477654557558-5.229459297184481i
49.99999999999998         -30                      30                       4.7786040551461415-3.9517908009440186i
69.99999999999999         -30                      30                       1.0024996039673533-0.09848443441141291i
89.99999999999997         -30                      30                       -0.06460249753808621+0.04914783284878872i
-89.99999999999997        -10                      30                       0.03718902791969178-0.02185576429075986i
-69.99999999999999        -10                      30                       -1.50035736515856+1.3965098050809261i
-49.99999999999998        -10                      30                       -2.3353303695694096+2.812534690082507i
-30                       -10                      30                       -2.995698607603182+5.08577622668839i
-10                       -10                      30                       -0.6647720872564402+0.9416753974993242i
10                        -10                      30                       0.7728949732067396-1.1773253358807967i
30                        -10                      30                       2.5839711347218706-4.314472240359171i
49.99999999999998         -10                      30                       2.2875741565280516-2.9012852281905213i
69.99999999999999         -10                      30                       1.0030964508802795-1.8192297231089327i
89.99999999999997         -10                      30                       -0.12961797456810653+0.04159126388313991i
-89.99999999999997        10                       30                       -0.07158424544945005-0.06789878548368317i
-69.99999999999999        10                       30                       0.948714875877349-1.3267655601362347i
-49.99999999999998        10                       30                       1.7509634979039048-1.138787581745513i
-30                       10                       30                       2.26235202939988-2.5046517927052148i
-10                       10                       30                       0.828851645163137-1.1508891919725848i
10                        10                       30                       -1.0325611869343014+1.1553263352775822i
30                        10                       30                       -2.3718391145326767+2.451545785496536i
49.99999999999998         10                       30                       -1.9039358274255014+1.1198037598500625i
69.99999999999999         10                       30                       -1.4154896837454778+0.730715274715104i
89.99999999999997         10                       30                       0.024833139099451965+2.983200366084085E-4i
-89.99999999999997        30                       30                       -0.05115670282974817+0.0029756985971235725i
-69.99999999999999        30                       30                       1.2529715603453133-0.01165226121845958i
-49.99999999999998        30                       30                       4.557088165297002-2.734751603115024i
-30                       30                       30                       4.074004535724967-4.513544978481754i
-10                       30                       30                       1.526478808279862-2.104606281121764i
10                        30                       30                       -1.6331910939491845+1.868706766142819i
30                        30                       30                       -4.3352595710551824+4.494145308837959i
49.99999999999998         30                       30                       -4.566189985009462+2.791091445261614i
69.99999999999999         30                       30                       -1.1001422889583012-8.800729752140996E-4i
89.99999999999997         30                       30                       0.07081784191561627+0.030346235230202794i
-89.99999999999997        49.99999999999998        30                       NaN
-69.99999999999999        49.99999999999998        30                       0.0256290261852605-0.26817624185396294i
-49.99999999999998        49.99999999999998        30                       4.3783343378680915-2.0400235259048034i
-30                       49.99999999999998        30                       3.026317309334753-2.827467192405041i
-10                       49.99999999999998        30                       1.0090213249341573-1.2090369872479423i
10                        49.99999999999998        30                       -1.324336868126533+1.4917883537163155i
30                        49.99999999999998        30                       -3.3127065337814745+2.8411250843438296i
49.99999999999998         49.99999999999998        30                       -4.387758375873127+2.6255118450056973i
69.99999999999999         49.99999999999998        30                       -0.009991860431780485+0.06724128198908823i
89.99999999999997         49.99999999999998        30                       NaN
-89.99999999999997        69.99999999999999        30                       NaN
-69.99999999999999        69.99999999999999        30                       NaN
-49.99999999999998        69.99999999999999        30                       0.005209834388821721-0.21696100139484847i
-30                       69.99999999999999        30                       0.7245856914767321-0.630185435700308i
-10                       69.99999999999999        30                       1.2154088952121052-0.6393384393565827i
10                        69.99999999999999        30                       -0.7920694860968203+1.0014175558064027i
30                        69.99999999999999        30                       -0.8576854447670426+0.6318596036236968i
49.99999999999998         69.99999999999999        30                       -0.007986186625317852+0.20355221221129255i
69.99999999999999         69.99999999999999        30                       NaN
89.99999999999997         69.99999999999999        30                       NaN
-89.99999999999997        89.99999999999997        30                       NaN
-69.99999999999999        89.99999999999997        30                       NaN
-49.99999999999998        89.99999999999997        30                       NaN
-30                       89.99999999999997        30                       -0.026241121929288996+0.11437604988287797i
-10                       89.99999999999997        30                       -0.014217850654499951-0.07550710557603729i
10                        89.99999999999997        30                       0.03792784302017541+0.10489959576910174i
30                        89.99999999999997        30                       -5.392491744000624E-5-0.08266780529619724i
49.99999999999998         89.99999999999997        30                       NaN
69.99999999999999         89.99999999999997        30                       NaN
89.99999999999997         89.99999999999997        30                       NaN
-89.99999999999997        -89.99999999999997       49.99999999999998        NaN
-69.99999999999999        -89.99999999999997       49.99999999999998        NaN
-49.99999999999998        -89.99999999999997       49.99999999999998        NaN
-30                       -89.99999999999997       49.99999999999998        NaN
-10                       -89.99999999999997       49.99999999999998        NaN
10                        -89.99999999999997       49.99999999999998        NaN
30                        -89.99999999999997       49.99999999999998        NaN
49.99999999999998         -89.99999999999997       49.99999999999998        NaN
69.99999999999999         -89.99999999999997       49.99999999999998        NaN
89.99999999999997         -89.99999999999997       49.99999999999998        NaN
-89.99999999999997        -69.99999999999999       49.99999999999998        NaN
-69.99999999999999        -69.99999999999999       49.99999999999998        NaN
-49.99999999999998        -69.99999999999999       49.99999999999998        0.021924740668091365-0.14584236259649397i
-30                       -69.99999999999999       49.99999999999998        0.06609591447209674+0.20546035277595667i
-10                       -69.99999999999999       49.99999999999998        -0.13426333861539277-0.15387830228566535i
10                        -69.99999999999999       49.99999999999998        -0.0723310017134107-0.031131066357577536i
30                        -69.99999999999999       49.99999999999998        -0.08109802237905131-0.34277723668091514i
49.99999999999998         -69.99999999999999       49.99999999999998        0.021976869010298227+0.11230001654360121i
69.99999999999999         -69.99999999999999       49.99999999999998        NaN
89.99999999999997         -69.99999999999999       49.99999999999998        NaN
-89.99999999999997        -49.99999999999998       49.99999999999998        NaN
-69.99999999999999        -49.99999999999998       49.99999999999998        -0.0066408536187444675-0.11138391300548776i
-49.99999999999998        -49.99999999999998       49.99999999999998        0.024832478868726582+0.41483486795463054i
-30                       -49.99999999999998       49.99999999999998        -1.3308004421218147+2.8625147236876867i
-10                       -49.99999999999998       49.99999999999998        -0.6085241208285787+0.85792630993792i
10                        -49.99999999999998       49.99999999999998        0.020718879724235972-1.757948481343295i
30                        -49.99999999999998       49.99999999999998        1.7283705762576391-1.7366296999854283i
49.99999999999998         -49.99999999999998       49.99999999999998        0.2164764542265883-0.6629016543036326i
69.99999999999999         -49.99999999999998       49.99999999999998        0.0036005297535610867+0.15415424933255514i
89.99999999999997         -49.99999999999998       49.99999999999998        NaN
-89.99999999999997        -30                      49.99999999999998        NaN
-69.99999999999999        -30                      49.99999999999998        0.08872929477121123+0.33361374586432363i
-49.99999999999998        -30                      49.99999999999998        -2.2809784799924975+2.692568756796111i
-30                       -30                      49.99999999999998        -1.6008103400333533+2.692591156492478i
-10                       -30                      49.99999999999998        -0.6253022086552789+0.9066418346958436i
10                        -30                      49.99999999999998        0.570329206022228-1.0196641936682045i
30                        -30                      49.99999999999998        1.7729556210662687-2.296133960919213i
49.99999999999998         -30                      49.99999999999998        2.04678848624517-2.8143650838675276i
69.99999999999999         -30                      49.99999999999998        -0.06022897728970953-0.20447134338789497i
89.99999999999997         -30                      49.99999999999998        NaN
-89.99999999999997        -10                      49.99999999999998        NaN
-69.99999999999999        -10                      49.99999999999998        -0.13011876176431592-0.18681324737892413i
-49.99999999999998        -10                      49.99999999999998        -0.8399202183503442+1.7116456549202332i
-30                       -10                      49.99999999999998        -0.8416012458788587+1.5758875651039883i
-10                       -10                      49.99999999999998        -0.3351363651469293+0.59983686829611i
10                        -10                      49.99999999999998        0.2605970789399593-0.5356295298168323i
30                        -10                      49.99999999999998        0.8792413523560776-1.4438642132879878i
49.99999999999998         -10                      49.99999999999998        0.7041037936611184-1.64278948255481i
69.99999999999999         -10                      49.99999999999998        0.24019921975041472+0.12030616884163081i
89.99999999999997         -10                      49.99999999999998        NaN
-89.99999999999997        10                       49.99999999999998        NaN
-69.99999999999999        10                       49.99999999999998        0.04612589613573048+0.2608044212829005i
-49.99999999999998        10                       49.99999999999998        0.2001657378078985-1.0530754433486786i
-30                       10                       49.99999999999998        0.5985084951910085-0.5686953770178169i
-10                       10                       49.99999999999998        0.14739997636288127-0.2493071549958188i
10                        10                       49.99999999999998        -0.45613783010858944+0.293185057132872i
30                        10                       49.99999999999998        -0.8131337475919516+0.6006117020522014i
49.99999999999998         10                       49.99999999999998        -0.4586391991678524+1.0660544122689681i
69.99999999999999         10                       49.99999999999998        -0.12054905421112924-0.16482345979967308i
89.99999999999997         10                       49.99999999999998        NaN
-89.99999999999997        30                       49.99999999999998        NaN
-69.99999999999999        30                       49.99999999999998        0.04406284316340514-0.2093108699846541i
-49.99999999999998        30                       49.99999999999998        2.3795269762487665-1.7233022002937062i
-30                       30                       49.99999999999998        1.620714155048107-1.7403811531600535i
-10                       30                       49.99999999999998        0.3925560239627992-1.00050086510756i
10                        30                       49.99999999999998        -0.8761663780865033+0.6961753676409629i
30                        30                       49.99999999999998        -2.2161522460147793+1.577861329716281i
49.99999999999998         30                       49.99999999999998        -2.9247104055219264+1.1504462266848208i
69.99999999999999         30                       49.99999999999998        -0.03934848616100292+0.3946177405837298i
89.99999999999997         30                       49.99999999999998        NaN
-89.99999999999997        49.99999999999998        49.99999999999998        NaN
-69.99999999999999        49.99999999999998        49.99999999999998        -0.017966952369962208+0.11153207846070753i
-49.99999999999998        49.99999999999998        49.99999999999998        -0.17273831045847465-0.477268259737598i
-30                       49.99999999999998        49.99999999999998        1.6043090694977824-1.8130483639114132i
-10                       49.99999999999998        49.99999999999998        -0.25669680288704766-1.4154772559678994i
10                        49.99999999999998        49.99999999999998        -0.8828557879257144+0.9061102182503491i
30                        49.99999999999998        49.99999999999998        -1.6773011216277975+2.376325150448694i
49.99999999999998         49.99999999999998        49.99999999999998        -0.0655335953577438+0.4282114333003868i
69.99999999999999         49.99999999999998        49.99999999999998        -0.017682509322832603-0.08121630568262203i
89.99999999999997         49.99999999999998        49.99999999999998        NaN
-89.99999999999997        69.99999999999999        49.99999999999998        NaN
-69.99999999999999        69.99999999999999        49.99999999999998        NaN
-49.99999999999998        69.99999999999999        49.99999999999998        -0.08122678611563473+0.010010037669926586i
-30                       69.99999999999999        49.99999999999998        -0.11913469207584412-0.598453748896775i
-10                       69.99999999999999        49.99999999999998        -0.4686127202680254+0.16920372751390336i
10                        69.99999999999999        49.99999999999998        -0.3516541047928571-0.176395282626857i
30                        69.99999999999999        49.99999999999998        0.12895349745397838+0.0021373482637511154i
49.99999999999998         69.99999999999999        49.99999999999998        0.054916447139961806-0.0839054961872311i
69.99999999999999         69.99999999999999        49.99999999999998        NaN
89.99999999999997         69.99999999999999        49.99999999999998        NaN
-89.99999999999997        89.99999999999997        49.99999999999998        NaN
-69.99999999999999        89.99999999999997        49.99999999999998        NaN
-49.99999999999998        89.99999999999997        49.99999999999998        NaN
-30                       89.99999999999997        49.99999999999998        NaN
-10                       89.99999999999997        49.99999999999998        NaN
10                        89.99999999999997        49.99999999999998        NaN
30                        89.99999999999997        49.99999999999998        NaN
49.99999999999998         89.99999999999997        49.99999999999998        NaN
69.99999999999999         89.99999999999997        49.99999999999998        NaN
89.99999999999997         89.99999999999997        49.99999999999998        NaN
