% Model:              antena_microStript_AITOR.mph
% Version:            COMSOL 5.0.0.243
% Date:               Jan 11 2023, 12:10
% Dimension:          3
% Nodes:              9721
% Expressions:        1
% Description:        Multislice
% x                       y                        z                        Color
-0.48221261503006296      77.80154478267113        50                       -0.044908311970570526
-0.5294415768879911       75.88534952503065        50.00000000000001        -0.09656875937441603
-1.1615697648534815       76.33094311716451        50.00000000000001        -0.09777145807448462
2.0365232034083386E-15    76.15455062934493        50                       -0.09644468420097882
1.550324234760436E-15     75.51214076996811        50                       -0.09334532297393072
-0.22386691167978368      75.66994683404567        50.00000000000001        -0.09575440625654426
-0.5522723483717354       74.95904891785219        50                       -0.09541869878674622
-0.5966050620889637       73.16036157768117        50                       -0.07795854781353148
-1.1899688983291186       73.5786297838239         50.00000000000001        -0.09607856480384697
-2.795494881316255        75.48482989209337        50                       -0.017767668349130704
-2.814256940660333        74.72360695336276        50                       -0.10694214089524103
-3.0653746046765007       74.9006223500616         50                       -0.10776978266658134
-1.6246728991697768       75.32846564150401        50                       -0.09900591841859034
-1.6246728991697779       73.885057057496          50                       -0.09711092170460524
-2.1276717515028114       74.23962606694275        50                       -0.10340772403552975
-2.8655546146579485       72.64233402727439        50.00000000000001        -0.112485101399221
-2.881420425861317        71.99861900601331        50.00000000000001        -0.14208025061715698
-3.093773738152145        72.14830901672102        50                       -0.11568579852016879
-3.2493457983395557       74.5023806536631         50                       -0.11091116152901541
-3.249345798339558        72.25797334502394        50.00000000000001        -0.11645341405641084
-4.031476591325836        72.80930529983986        50                       -0.12704564225806403
-5.108777147602476        73.1681150015156         50.00000000000001        0.0023956487792808068
-5.166235789633679        70.83687643434546        50.00000000000001        -0.20500355371665097
-5.9352814311488675       71.37898453273698        50                       -0.1660443982423053
-1.6246728991697754       76.65738922900871        50.000000000000014       -0.029653194889859118
-3.2493457983395553       75.03030551653661        50                       -0.013854907886919399
-4.874018697509333        73.40322180406456        50.00000000000001        -0.0010667572636093026
-4.320140533878533        73.95792185427044        50                       -0.008524949150415788
-6.498691596679114        71.77613809159246        50                       0.015645940240953754
-1.624672899169779        72.63762779715925        50                       -0.10543028913306202
-3.249345798339559        71.81154280931837        50.00000000000001        -0.15110954205727778
-4.874018697509336        70.98545782147747        50.00000000000001        -0.19619158469167128
-6.498691596679117        70.15937283363658        50                       -0.24083033351484692
-4.154844858973693        71.35113063596573        50                       -0.17549882849645143
3.648525286416826E-15     78.28447294148079        50                       -0.01474792063821452
-2.2139442659319832E-31   73.46371278500013        50                       -0.05898340612929121
-7.451051153406018        69.67513386267758        50                       -0.16999343094392533
-7.42205941388867         70.85140011093782        50                       0.10445945462413
6.127831738340434E-15     64.66441871732103        50.00000000000001        0.3204670621251413
-0.6843747381879062       65.24309024354483        50                       0.2400622553788116
5.202483630582674E-15     65.99317747944333        50                       0.24247141346944556
3.387244862558661E-15     68.59977968474813        50.000000000000014       0.10109463934862511
-1.253034005978914        67.92374233000712        50                       0.05450234357641208
-0.3966001456777884       68.86240951211866        50.00000000000001        0.05995227072640095
4.595873803755325E-15     66.8642422342408         50                       0.19721249715856143
3.0639158691702176E-15    69.0640657511606         50                       0.07369740439303804
-0.12001897995043034      69.1655475307009         50.00000000000001        0.06208332873620122
2.9016373252744917E-15    69.29709052886116        50.00000000000001        0.06291849227465592
1.5319579345851086E-15    71.26388926808035        50                       -0.0035702762213636816
-0.6886782477414376       71.84619961716317        50                       -0.052343138935967794
6.007910199663275E-16     72.60100357827895        50                       -0.026574205778138425
-1.6246728991697743       66.03815724639992        50                       0.13092506142278107
-2.3860490320074037       66.68193712931334        50                       0.04879726951125948
-1.6246728991697756       67.51641930273696        50                       0.04821309304184285
-1.6246728991697772       69.67564303904254        50                       -0.04079517105693179
-2.954708299798409        69.36258921577566        50                       -0.10714429267766017
-2.275722502325711        70.10677007404222        50                       -0.09553241942360163
-1.6246728991697759       68.2379807633197         50                       0.013967794089695798
-1.6246728991697779       70.43780428023948        50.00000000000001        -0.07301693433729034
-1.8216932737699203       70.6043944164694         50.00000000000001        -0.08759454319921814
-1.624672899169778        70.82033235215478        50.00000000000001        -0.0837473004344349
-3.249345798339556        67.4118957754788         50.00000000000001        -0.04194309201050175
-4.087723325826914        68.12078401508185        50                       -0.11695827970022629
-3.249345798339557        69.03966112603061        50                       -0.11303475931941027
-3.249345798339558        70.75150639333694        50                       -0.1564226173646511
-4.656382593617916        70.80143610154417        50                       -0.2294509124597794
-3.249345798339557        69.61171929239859        50                       -0.1323832295637688
-4.874018697509334        68.78563430455768        50                       -0.18370919684874026
-5.789397619646412        69.55963090085038        50                       -0.24738604691923388
-4.874018697509335        70.56290294932425        50                       -0.23535204988798092
-0.6023833269318589       66.55795299684519        50                       0.16934164495014667
-1.360136271627382        70.57231119351322        50.00000000000001        -0.06454528715352666
-2.1236674811657945       67.98426080934527        50.00000000000001        -0.006739748359436462
-3.6449516353997433       69.41056862184537        50                       -0.14812287137976382
-1.624672899169773        64.21250625331915        50                       0.14944179932101342
-1.3659145364702652       63.96990261267721        50                       0.15847870529243507
-3.2493457983395535       65.73574807661278        50                       0.10232409543243658
-2.8871986907042047       65.39621042517732        50                       0.12915220242854572
-4.8740186975093325       67.25898989990642        50                       -0.014457946022161737
-4.4084828449381455       66.82251823767739        50                       0.03208529827848382
-6.498691596679114        68.78223172320008        50                       -0.17549033357174199
-5.929766999172066        68.24882605017747        50.00000000000001        -0.10846200825890254
7.503329935890853E-15     62.68926443002551        50                       -0.00897603027569279
-8.429618319080467        69.86579868435656        49.99999999999999        -0.13753933714438923
-7.14124574983266         86.28627505506392        50                       -7.239727626131939E-4
-4.782436586325794        86.44766793707299        50                       -3.53040058961688E-4
-7.130501660562512        84.30489682737412        50                       0.005402164640979918
-3.5779961330782104       86.51435980794767        50                       -1.7371621632905843E-4
-2.3612052502019067       86.54738432023751        50.00000000000001        -1.1534421110342954E-4
-3.575599526691194        85.6475487587573         50                       0.001994661331949589
-10.689739221497996       85.92942820798397        50                       -0.001595265210295641
-9.669647693254163        86.0403796411554         50.00000000000001        -0.0013813987802180731
-10.684201395633199       85.23689452008432        50                       -0.022372248285693112
-3.570618419490849        83.81443514650174        50                       0.009287513882380322
-1.000770765099521        83.9213198430574         50                       0.010859250215120252
-3.565046243395625        81.83060884931245        50                       0.0218813527157058
-7.126488714393599        83.5537666071977         50.00000000000001        0.006723695172924654
-6.200757378295728        83.62968176068692        50.00000000000001        0.007374915864725329
-7.122993601147808        82.9202931553042         50.00000000000001        -0.01657011735586095
-3.5632422999531483       81.17815372922092        50                       0.024901083606987017
-2.7281740150314446       81.22439284887135        50                       0.02594357407323101
-3.561597682967793        80.6028398866546         50.00000000000001        -3.8066184282094587E-4
9.070666064462005E-15     84.73362572987693        50                       0.008860703214153703
-7.961997058014916        83.46131768361832        50                       -0.020012466413930494
-4.351350528446136        81.1120808897072         50.00000000000001        -0.006442647099482321
4.570787652066583E-15     79.36459504599244        50                       0.049763297371540796
-0.7381322856456202       78.7604042874154         50.00000000000001        0.019128597962128666
8.430025590037236E-15     83.95020562831182        50                       0.01153506707199849
7.847066314867522E-15     83.25752374026914        50                       0.015353581632306528
6.259788109523549E-15     81.34269455062125        50.000000000000014       0.029298292525052595
4.097805527425135E-15     78.80258983385872        50                       0.05433293471909492
1.0603302749228463E-14    86.58253756602224        50                       7.163534643194711E-5
-11.570245062574998       85.8082789744347         50                       -0.015333897181453083
-14.170415860396592       85.40907935491639        50                       -2.267014257945157E-4
-15.105709183565263       83.11303561148519        50                       -0.00940416382453196
-16.8707239422255         84.92522424363013        50                       -0.0022272444010317527
-12.25477808873815        82.22836749025727        50                       -0.00691663174683152
-12.844037570678232       80.80503750237038        50                       -0.0014335094107833543
-13.955417739475925       81.9436176774189         50                       -0.010746024135617838
-10.34421277263935        79.0772789811819         50                       0.022274967630497855
-10.58362718586757        78.5086876838538         50                       0.03126260597251545
-11.034862066998          78.9699405826153         50                       0.01948767296456489
-12.786335101863298       83.12396618532827        50                       -0.0046180831072745515
-10.562207396929564       79.44345100927858        50                       0.01915512780924318
-9.05212313804897         76.95879346405708        50                       0.05307295578644919
-11.244648927814424       84.66403006069672        50                       -0.01920317700828079
-10.588217825722914       82.46404737797025        50.00000000000001        -0.016324201368703835
-15.712934826267208       81.62386806088051        50                       0.1536497607494107
-9.922292992809119        80.0774202239359         50                       0.004529618204384337
-9.655077650103753        79.16619539344336        50                       0.011219540783508914
-13.799618207235742       78.49941992667385        50.00000000000001        0.10322819146879052
-11.891619015326395       75.40603645763449        50.00000000000001        0.05490232988976932
-8.757195198090374        75.90179274085419        50                       0.07319065975325229
-8.646494225672942        75.47379579691574        50.00000000000001        0.08930821387769847
-7.876068734439981        72.65328665104272        50                       0.19262157665217083
-9.989168048733283        72.34506598792042        50                       -9.8109121870682E-4
-17.394445730061992       84.39553469518883        50                       0.20356167220628807
-15.160186100264855       80.7345633480448         50.00000000000001        0.14161364019325015
-12.921449141929596       77.09198367590496        50.00000000000001        0.08338029976479103
-10.67800753815044        73.46872943616901        50                       0.019970392699675196
-17.631350700314904       84.77810628831153        50                       0.13307497324806264
-8.825965072515398        83.1332380124477         50                       -0.03943637923544508
-5.180231826912394        80.80797246560984        50                       -0.030035573087969274
-7.659118607057725        82.37582289547021        50.00000000000001        -0.03439681472406163
-1.5284428108873283       78.4808792647553         50                       -0.006848184777470696
-4.071704660995849        80.08830411216715        50                       -0.01964262653078808
-8.743539754164527        81.27452178616525        50                       -0.021218820428950083
-7.003214089274983        80.1391381415753         50.00000000000001        -0.01877345240503112
-8.91239511510657         79.43867833610423        50                       -0.006063300150971336
-5.1841585134358015       78.96619183140697        50                       -0.0018415117153534931
-3.4168730176010373       77.81296016275141        50                       0.008260445131117367
-5.335762957087637        77.13426775427924        50.000000000000014       0.023979015365289964
-6.359099443334398        77.78104995454144        50                       0.01841964626479694
-6.8067193439038105       77.32954377615937        50.00000000000001        0.02463896438463047
-6.0956137495564455       76.86551603808745        50.00000000000001        0.028853082886066875
-7.899158313902953        76.22762014892001        50.00000000000001        0.04051880469206475
-8.429280174371813        75.69289572091175        50                       0.05393690505262032
-5.224205173611179        73.62622939917466        50.00000000000001        0.1173988645425089
-5.592497418449991        73.491106584373          50                       0.12102395397909337
-5.523207048996873        74.7208680550282         50                       0.08687384893831668
-17.640562124030385       71.86973513443208        50                       -0.020476825218966502
-17.649589717348153       73.95336300555851        50.00000000000001        -1.7080699429796245E-4
-17.26360757055343        73.22124802365161        50.00000000000001        -0.10182844174981599
-17.64872900948525        74.85706642245233        50.00000000000001        0.009017022546700764
-17.65589145817762        77.47698893707624        50                       0.0464951393320923
-16.622548877892513       75.51573606783768        50                       0.017580916818971698
-17.070033777053936       73.91307483900088        50                       -0.03981225867999748
-17.649775820258636       79.87446433358423        50                       0.083831614794702
-17.65103188801424        80.96571826580796        50.00000000000001        0.1086031885386798
-15.98338840687201        77.79860602367212        50.00000000000001        0.12949247219284493
-16.108456084300574       77.3511513578073         50                       0.10345134749625845
-17.640479236670963       83.51894602433515        50                       0.17016914812943157
-17.635340580966343       84.42058142776199        50                       0.19194276691803822
-17.47341700627294        84.11477474714896        50                       0.39516790370356236
-15.724917742249781       71.67130804834603        50                       -0.1292397543059477
-15.734228168153082       73.82021553911574        50.00000000000001        -0.04362062671879959
-14.495336736824463       71.47033748034082        50                       -0.23151679171946
-14.840277073499593       70.23360666828907        50                       -0.20758479157757304
-15.731465544013385       76.72084301359732        50                       0.0813213639089194
-15.73310525958016        77.3206277960762         50                       0.1099923761606493
-13.8555444667129         73.75707437010128        50                       -0.05854864133312226
-13.87402065760219        73.69090213758497        50                       -0.061729842636604915
-15.729576904877954       78.70382668730309        50                       0.1772179208110241
-15.720968650904169       80.78660496580113        50.00000000000001        0.28069383417807625
-15.344963338613582       80.07697493806748        50                       0.2510776278294907
-13.818482201055703       73.59834189425378        50                       -0.06641779694874184
-13.81886661895801        73.68706807267297        50                       -0.06196229440188525
-13.494460365287658       73.07174769967482        50                       -0.11063184654751118
-13.818674573084934       73.88870735027108        50                       -0.05131506170748089
-13.810319060982685       77.16426665507608        50.00000000000001        0.12515684312472194
-13.215861279071301       76.04314361929397        50                       0.038545509512884754
-11.906431514205153       70.48128939677548        50                       -0.3242868227356395
-11.903505069762936       73.55392060623018        50                       -0.10877625363182249
-11.08608861457276        72.01341674621061        50                       -0.35777661629198776
-11.634947696290029       70.04970267632285        50                       -0.3458091507443303
-16.588071444618375       80.86707364674437        50                       0.25419991012264775
-15.162224431244455       77.27420371743511        50                       0.11298134937880862
-13.736377417870546       73.68133378812585        50                       -0.06300287269064866
-15.723998832376893       70.28430971316195        50                       -0.1813038038586744
-17.023338263871967       70.35885859106203        50                       -0.12459882830536832
-13.816214080806304       70.17485162310706        50                       -0.24711436317984137
-11.908429329235732       70.06539353305219        50.00000000000001        -0.3350561054858625
-12.310530404496625       70.08846385881658        50                       -0.2953196837630639
-10.00064457766515        69.95593544299729        50                       -0.46896470382047045
-17.63178358394747        70.39376780321685        50                       0.1308179162306042
-3.3360878182026896       62.325499129248925       50                       -0.006359968597928537
-5.694435438699789        62.155664074257416       50                       0.11537980117753578
-3.9498364205299215       62.79750712895376        50                       -0.015564797891224353
-8.12712940780787         61.88897042043487        50                       0.21556852858968
-7.898987357163458        62.93087764812866        50                       0.15389427265274103
-6.681636682316244        62.06813096023485        50                       0.1571347624586667
-9.145517254588638        62.39944589827199        50                       0.22378982997918714
-9.997125647962035        61.61601987864975        50.00000000000001        0.30383580181305214
-11.153950987480247       61.4069541109385         50                       0.3559875021330442
-10.310787986553224       61.81423124479967        50                       0.28900612439653517
-13.285531558777793       60.98174320601542        50                       0.4295707194385281
-16.213624453534926       60.2931947116522         50.00000000000001        0.5240252402473746
-14.095892793899946       61.441348769737644       50                       0.4039889916135343
-4.9246724978223355       63.57111275202408        50.00000000000001        0.014997690313719378
-6.9591327514069174       63.34937490945586        50                       0.1171394250989616
-5.4743938254767865       63.99445658549343        50.00000000000001        -0.002587464169439834
-10.285549680434926       62.85702387562956        50                       0.2561379269203121
-9.374804142939471        63.98746328226986        50                       0.14982484450748648
-8.247242437489431        63.186645447975536       50.00000000000001        0.17243380142553855
-10.978004614476134       63.19421706302076        50                       0.2530899880963617
-11.544564734600662       62.626716733409275       50                       0.31432568747779227
-12.267462291335086       62.46928744809331        50.00000000000001        0.34620956319719
-11.747502579495546       62.7553629403312         50                       0.29992575702060104
-6.51389567307922         64.82037180364874        50.00000000000001        0.020498563351293513
-8.248491983905813        64.56718466206414        50                       0.10274481715564579
-6.9999658874549215       65.1952036929301         50                       -0.010318252313463408
-12.492875292991359       63.776050646344274       50.00000000000001        0.27680795613552645
-10.852068433811816       65.04944927240868        50.00000000000001        0.11391175350359167
-9.813784739510636        64.3104796676798         50                       0.16862295830923205
-12.826386934613426       63.9333435297907         50                       -0.0600985709058153
-8.10375106744122         66.07324044887211        50                       -0.01795217258234331
-9.560186577016498        65.80681988548919        50                       0.046185655581751375
-8.52654305280435         66.39971269389518        50                       -0.05947429413329214
-6.125475950810234        62.563433022143          50                       0.1264210552350541
-11.999863606820494       62.21445112282633        50                       0.3604219575062999
-7.52789408627125         63.88755720608053        50                       0.12566874427395414
-8.947158777327672        65.22843309947339        50                       0.08999510817587811
-1.8169129074496806       63.62086817461581        50                       -0.03241184315487789
-3.5268573587209353       64.87769412304698        50.00000000000001        0.036121654543350874
-5.24246988850973         66.11440695106988        50                       0.03225991030835702
-6.964431173198064        67.32859128529336        50.00000000000001        -0.04125683335039087
-2.0688131245781447       63.7838587898899         50.00000000000001        -0.011241783678697909
-14.809716972086436       61.86615281273163        50                       0.18766712632257215
-3.894642456603264        65.11208919356186        50.00000000000001        0.05207152509683306
-13.093168020619178       63.64406047149656        50                       -0.03307895784946041
-5.736593605347084        66.42416700914487        50                       0.030659421408495063
-11.38125422700838        65.43958044529963        50.00000000000001        -0.1921955379653547
-9.69423248637353         67.32968332059916        50                       -0.3231864960310912
-7.596815130129257        67.71793957640958        50                       -0.07072074351106891
-16.343449082916678       60.418914469896535       50.00000000000001        0.45247104235198643
-13.292226906132662       63.44780655583019        50.00000000000001        -0.007179977570879736
-10.381570599581483       66.58437084568618        50                       -0.2696628922752193
-0.2572812306038819       62.44130365894979        50                       -0.2361383824183923
-16.55710362731837        60.205419880389215       50.00000000000001        -0.30814018539223875
-8.693535423313744        68.51742887753576        50                       -0.22153211069672116
7.587605822642751E-15     62.54576849851054        50.00000000000001        -0.33207912712325743
7.647381226594991E-15     62.445606618327794       49.99999999999999        -0.4767785361079452
-16.95112368948547        63.803530373547126       50.00000000000001        -0.21053776860411205
-18.344802328789967       61.45491355793395        50                       -0.4030886005098263
-18.280095147670217       62.62979227994284        50                       -0.4478938054623187
-17.079715278064647       65.05853699155094        50                       0.03193329823838541
-17.299717652821258       67.11846837787019        50                       0.09881407160555196
-18.111750487250216       65.75544346311241        50                       0.259466052065102
-17.927998727653993       69.05429704238442        50                       0.4113099956475806
-17.56719042061308        69.77814511102693        50                       0.1801263612208389
-16.585319840576325       60.447318526105626       50                       -0.8911351378043453
-16.67465361913623        60.296160715340726       50.00000000000001        -1.0528519414477673
-16.640475693701944       60.94583863116478        50                       -0.7964371603912458
-19.010776537238687       64.24639745758697        50                       -0.08138143089500353
-20.01404137276098        62.56238308164261        50                       -0.04000487074125035
-19.869375484694793       65.15953689227482        50                       0.13058186840770708
-19.231334400277422       66.43956508912486        50                       0.27707514924
-18.738964072315497       61.7013566219709         50                       -0.2645381375023257
-17.04023116564845        60.55424657613733        50                       -0.9164216067832414
-20.895478379941743       63.100985067222744       50                       0.08447671933036467
-19.345558743718456       67.52821122739753        50                       0.4222008046316469
-17.877405485150987       69.98307013955538        50.00000000000001        0.392030357992587
-21.059333903489424       64.6626546515782         50                       0.5318964055848246
-19.779908122993646       66.80194750902773        50                       0.4181455632900353
-21.68241076083629        63.62082487850006        50.00000000000001        0.5492818271372044
-16.351905780364184       69.0428664154299         50                       -0.1235003370633391
-15.535947300292278       66.64443399352172        49.99999999999999        -0.20191177342769287
-16.482621203074068       60.65922491217902        50.00000000000001        0.3797694568800249
-15.410175329161714       67.2933295544467         50                       -0.20587858809280618
-15.311344237890467       67.1055186560598         50                       -0.2129177956618904
-15.375635414621206       66.96992461792503        50                       -0.21495603515540979
-15.35863936582171        66.81924345419364        50                       -0.21504979001640465
-15.230044636529959       66.95868466094103        50                       -0.22055795288780283
-14.26601773564667        65.1677256918208         50                       -0.2288553499918292
-15.010301816598211       63.61484055609364        50                       -0.18829873199702424
-13.640603495784841       68.59150123455206        50                       -0.24565907893841676
-12.09588494663682        69.6805683700915         50                       -0.28058728287709633
-13.451553176421154       66.82138085797988        50                       -0.35044674726544534
-11.808100816808537       69.16080575370322        50.00000000000001        -0.32635546266279625
-11.039521859225538       67.74174422370413        50                       -0.4458007595707241
-11.527470938221107       66.67283709803473        50.000000000000014       -0.4768104165035514
-15.471425804366856       66.97731986557969        50.00000000000001        -0.2121120177956111
-16.10257453523413        63.72103306287029        50                       -0.12489190270629003
-12.281407701847488       66.73104282303258        50                       -0.42773742266499515
-32.81433521158039        74.69485098823219        50                       0.26095488466343575
-35.17873914904901        78.0528001492637         50                       0.42267314199694866
-35.04098527093097        78.31971110043705        50                       1.0031793791999482