% Model:              antena_microStript_AITOR.mph
% Version:            COMSOL 5.0.0.243
% Date:               Jan 11 2023, 12:12
% Dimension:          3
% Nodes:              9703
% Expressions:        1
% Description:        Multislice
% x                       y                        z                        Color
-0.48221261503006296      77.80154478267113        50                       0.22580305555394575
-0.5294415768879911       75.88534952503065        50.00000000000001        0.14191763148786182
-1.1615697648534815       76.33094311716451        50.00000000000001        0.12006696414152235
2.0365232034083386E-15    76.15455062934493        50                       0.1713692759660337
1.550324234760436E-15     75.51214076996811        50                       0.13606141500949698
-0.22386691167978368      75.66994683404567        50.00000000000001        0.1332436788378746
-0.5522723483717354       74.95904891785219        50                       0.07218524734060922
-0.5966050620889637       73.16036157768117        50                       -0.005669530065849825
-1.1899688983291186       73.5786297838239         50.00000000000001        -0.042756207893836815
-2.795494881316255        75.48482989209337        50                       0.11993622484101554
-2.814256940660333        74.72360695336276        50                       0.005280222245231659
-3.0653746046765007       74.9006223500616         50                       -6.742472798147089E-4
-1.6246728991697768       75.32846564150401        50                       0.08047450919916117
-1.6246728991697779       73.885057057496          50                       -0.027543898692194868
-2.1276717515028114       74.23962606694275        50                       -0.02763772165355874
-2.8655546146579485       72.64233402727439        50.00000000000001        -0.1961045566239817
-2.881420425861317        71.99861900601331        50.00000000000001        -0.21817917091407696
-3.093773738152145        72.14830901672102        50                       -0.2470437147946456
-3.2493457983395557       74.5023806536631         50                       -0.022326997690495887
-3.249345798339558        72.25797334502394        50.00000000000001        -0.23869826776784436
-4.031476591325836        72.80930529983986        50                       -0.22892912520031644
-5.108777147602476        73.1681150015156         50.00000000000001        -0.06196009607548816
-5.166235789633679        70.83687643434546        50.00000000000001        -0.4797002546029796
-5.9352814311488675       71.37898453273698        50                       -0.476783642576652
-1.6246728991697754       76.65738922900871        50.000000000000014       0.18747315867733885
-3.2493457983395553       75.03030551653661        50                       0.10017441789568005
-4.874018697509333        73.40322180406456        50.00000000000001        -0.0293280688623374
-4.320140533878533        73.95792185427044        50                       0.02457444193438202
-6.498691596679114        71.77613809159246        50                       -0.22218093527254915
-1.624672899169779        72.63762779715925        50                       -0.0948342333375636
-3.249345798339559        71.81154280931837        50.00000000000001        -0.25545877561661257
-4.874018697509336        70.98545782147747        50.00000000000001        -0.44172165474945313
-6.498691596679117        70.15937283363658        50                       -0.6554645152115668
-4.154844858973693        71.35113063596573        50                       -0.3593595057432819
3.648525286416826E-15     78.28447294148079        50                       0.23002567777112773
-2.2139442659319832E-31   73.46371278500013        50                       0.04353412211371324
-7.451051153406018        69.67513386267758        50                       -0.8973810017932327
-7.42205941388867         70.85140011093782        50                       -0.46873832272019444
6.127831738340434E-15     64.66441871732103        50.00000000000001        -6.10528485428352
-0.6843747381879062       65.24309024354483        50                       -5.260124964619001
5.202483630582674E-15     65.99317747944333        50                       -4.450225358662892
3.387244862558661E-15     68.59977968474813        50.000000000000014       -2.0118518486726633
-1.253034005978914        67.92374233000712        50                       -2.3699657717055413
-0.3966001456777884       68.86240951211866        50.00000000000001        -1.7618161807427963
4.595873803755325E-15     66.8642422342408         50                       -3.335099641540313
3.0639158691702176E-15    69.0640657511606         50                       -1.6601520776780512
-0.12001897995043034      69.1655475307009         50.00000000000001        -1.6016403704982283
2.9016373252744917E-15    69.29709052886116        50.00000000000001        -1.5492352198826338
1.5319579345851086E-15    71.26388926808035        50                       -0.6101449493508082
-0.6886782477414376       71.84619961716317        50                       -0.37983771050813375
6.007910199663275E-16     72.60100357827895        50                       -0.19201292217477184
-1.6246728991697743       66.03815724639992        50                       -4.047966289158641
-2.3860490320074037       66.68193712931334        50                       -3.3631375218884894
-1.6246728991697756       67.51641930273696        50                       -2.731261265329752
-1.6246728991697772       69.67564303904254        50                       -1.2750027392077166
-2.954708299798409        69.36258921577566        50                       -1.310514699102716
-2.275722502325711        70.10677007404222        50                       -0.9666563820501914
-1.6246728991697759       68.2379807633197         50                       -2.076364663051421
-1.6246728991697779       70.43780428023948        50.00000000000001        -0.8521249580491429
-1.8216932737699203       70.6043944164694         50.00000000000001        -0.7774109685805735
-1.624672899169778        70.82033235215478        50.00000000000001        -0.7143104800323243
-3.249345798339556        67.4118957754788         50.00000000000001        -2.560147127561048
-4.087723325826914        68.12078401508185        50                       -2.00385339921654
-3.249345798339557        69.03966112603061        50                       -1.5104049302482783
-3.249345798339558        70.75150639333694        50                       -0.6655989515766998
-4.656382593617916        70.80143610154417        50                       -0.5200360602486206
-3.249345798339557        69.61171929239859        50                       -1.137753877419034
-4.874018697509334        68.78563430455768        50                       -1.468899772205694
-5.789397619646412        69.55963090085038        50                       -1.0119610068257787
-4.874018697509335        70.56290294932425        50                       -0.6243770885411821
-0.6023833269318589       66.55795299684519        50                       -3.6030891488807146
-1.360136271627382        70.57231119351322        50.00000000000001        -0.8114497521436728
-2.1236674811657945       67.98426080934527        50.00000000000001        -2.225499293624575
-3.6449516353997433       69.41056862184537        50                       -1.2174637506871757
-1.624672899169773        64.21250625331915        50                       -6.75408334649236
-1.3659145364702652       63.96990261267721        50                       -7.08063460451119
-3.2493457983395535       65.73574807661278        50                       -4.433749216811262
-2.8871986907042047       65.39621042517732        50                       -4.77692963536599
-4.8740186975093325       67.25898989990642        50                       -2.7663716592686427
-4.4084828449381455       66.82251823767739        50                       -3.111441067165125
-6.498691596679114        68.78223172320008        50                       -1.5095396914800747
-5.929766999172066        68.24882605017747        50.00000000000001        -1.8550481775878591
7.503329935890853E-15     62.68926443002551        50                       -10.026737896269122
-8.429618319080467        69.86579868435656        49.99999999999999        -0.8066348121972441
-7.14124574983266         86.28627505506392        50                       0.005007353064414311
-4.782436586325794        86.44766793707299        50                       0.0035082883869717004
-7.130501660562512        84.30489682737412        50                       0.05887109168366442
-3.5779961330782104       86.51435980794767        50                       0.002587248159212077
-2.3612052502019067       86.54738432023751        50.00000000000001        0.0017533057386252156
-3.575599526691194        85.6475487587573         50                       0.02772957330886649
-10.689739221497996       85.92942820798397        50                       0.007439700500176831
-9.669647693254163        86.0403796411554         50.00000000000001        0.006855384734536852
-10.684201395633199       85.23689452008432        50                       0.06030161006210439
-3.570618419490849        83.81443514650174        50                       0.0757585754914857
-1.000770765099521        83.9213198430574         50                       0.07251409925625196
-3.565046243395625        81.83060884931245        50                       0.12233935002965905
-7.126488714393599        83.5537666071977         50.00000000000001        0.0801604722170075
-6.200757378295728        83.62968176068692        50.00000000000001        0.07916020737109304
-7.122993601147808        82.9202931553042         50.00000000000001        0.13640177401054496
-3.5632422999531483       81.17815372922092        50                       0.13870889469781655
-2.7281740150314446       81.22439284887135        50                       0.13716938063988598
-3.561597682967793        80.6028398866546         50.00000000000001        0.19842758963551355
9.070666064462005E-15     84.73362572987693        50                       0.04916290808754919
-7.961997058014916        83.46131768361832        50                       0.12137526018892464
-4.351350528446136        81.1120808897072         50.00000000000001        0.18766636156156188
4.570787652066583E-15     79.36459504599244        50                       0.1703375455940984
-0.7381322856456202       78.7604042874154         50.00000000000001        0.23882394928857403
8.430025590037236E-15     83.95020562831182        50                       0.07112179687144952
7.847066314867522E-15     83.25752374026914        50                       0.08877317652416097
6.259788109523549E-15     81.34269455062125        50.000000000000014       0.13141153155023494
4.097805527425135E-15     78.80258983385872        50                       0.1826915305664176
1.0603302749228463E-14    86.58253756602224        50                       -2.977005269120054E-4
-11.570245062574998       85.8082789744347         50                       0.026232046299838944
-14.170415860396592       85.40907935491639        50                       0.0014224288290821544
-15.105709183565263       83.11303561148519        50                       0.07049831691914457
-16.8707239422255         84.92522424363013        50                       0.006068302417322615
-12.25477808873815        82.22836749025727        50                       0.10537847672266877
-12.844037570678232       80.80503750237038        50                       0.11979523378198575
-13.955417739475925       81.9436176774189         50                       0.11116803113937816
-10.34421277263935        79.0772789811819         50                       0.12753416513775587
-10.58362718586757        78.5086876838538         50                       0.11880672111405757
-11.034862066998          78.9699405826153         50                       0.13130130007358215
-12.786335101863298       83.12396618532827        50                       0.07797965601774043
-10.562207396929564       79.44345100927858        50                       0.12574263158098223
-9.05212313804897         76.95879346405708        50                       0.11074798216580994
-11.244648927814424       84.66403006069672        50                       0.06399119174722308
-10.588217825722914       82.46404737797025        50.00000000000001        0.12103273812309334
-15.712934826267208       81.62386806088051        50                       0.13604539182583247
-9.922292992809119        80.0774202239359         50                       0.1382737701061447
-9.655077650103753        79.16619539344336        50                       0.14610434302713154
-13.799618207235742       78.49941992667385        50.00000000000001        0.15264623887108952
-11.891619015326395       75.40603645763449        50.00000000000001        0.0672465278083724
-8.757195198090374        75.90179274085419        50                       0.09339279186479267
-8.646494225672942        75.47379579691574        50.00000000000001        0.07187022986808345
-7.876068734439981        72.65328665104272        50                       -0.06142916471862309
-9.989168048733283        72.34506598792042        50                       -0.14349453610145396
-17.394445730061992       84.39553469518883        50                       0.049696569714616404
-15.160186100264855       80.7345633480448         50.00000000000001        0.14259571924084657
-12.921449141929596       77.09198367590496        50.00000000000001        0.11513665376942311
-10.67800753815044        73.46872943616901        50                       -0.06619517936093824
-17.631350700314904       84.77810628831153        50                       0.04190595379681635
-8.825965072515398        83.1332380124477         50                       0.15409822529893671
-5.180231826912394        80.80797246560984        50                       0.22482929750705954
-7.659118607057725        82.37582289547021        50.00000000000001        0.17233960684111965
-1.5284428108873283       78.4808792647553         50                       0.2792142762425347
-4.071704660995849        80.08830411216715        50                       0.2357810508257549
-8.743539754164527        81.27452178616525        50                       0.17093321877453316
-7.003214089274983        80.1391381415753         50.00000000000001        0.2056520043156963
-8.91239511510657         79.43867833610423        50                       0.1776097749547138
-5.1841585134358015       78.96619183140697        50                       0.2236285045231965
-3.4168730176010373       77.81296016275141        50                       0.25038139842348744
-5.335762957087637        77.13426775427924        50.000000000000014       0.212019708481736
-6.359099443334398        77.78104995454144        50                       0.19642735037479092
-6.8067193439038105       77.32954377615937        50.00000000000001        0.1893885521752265
-6.0956137495564455       76.86551603808745        50.00000000000001        0.19856607732947168
-7.899158313902953        76.22762014892001        50.00000000000001        0.15695218506794356
-8.429280174371813        75.69289572091175        50                       0.1329966872552459
-5.224205173611179        73.62622939917466        50.00000000000001        0.11990394913596084
-5.592497418449991        73.491106584373          50                       0.10547647725631613
-5.523207048996873        74.7208680550282         50                       0.14799994920092369
-17.640562124030385       71.86973513443208        50                       -0.23617899935949968
-17.649589717348153       73.95336300555851        50.00000000000001        -0.07054075351257669
-17.26360757055343        73.22124802365161        50.00000000000001        -0.18719428565155485
-17.64872900948525        74.85706642245233        50.00000000000001        0.0019501815157988707
-17.65589145817762        77.47698893707624        50                       0.06635070110511274
-16.622548877892513       75.51573606783768        50                       -0.06197700729931112
-17.070033777053936       73.91307483900088        50                       -0.06703160682595474
-17.649775820258636       79.87446433358423        50                       0.12292712506322717
-17.65103188801424        80.96571826580796        50.00000000000001        0.11069710042400582
-15.98338840687201        77.79860602367212        50.00000000000001        0.08472208925148146
-16.108456084300574       77.3511513578073         50                       0.09433584861393181
-17.640479236670963       83.51894602433515        50                       0.07583284679871294
-17.635340580966343       84.42058142776199        50                       0.06441316587000875
-17.47341700627294        84.11477474714896        50                       0.06876151506812123
-15.724917742249781       71.67130804834603        50                       -0.2321138547189085
-15.734228168153082       73.82021553911574        50.00000000000001        -0.09856139734865495
-14.495336736824463       71.47033748034082        50                       -0.3864598325167499
-14.840277073499593       70.23360666828907        50                       -0.6160621079861437
-15.731465544013385       76.72084301359732        50                       0.08443360767875943
-15.73310525958016        77.3206277960762         50                       0.09352599680090544
-13.8555444667129         73.75707437010128        50                       -0.07327969216547243
-13.87402065760219        73.69090213758497        50                       -0.07315625544966567
-15.729576904877954       78.70382668730309        50                       0.11266800281665701
-15.720968650904169       80.78660496580113        50.00000000000001        0.14363950181356863
-15.344963338613582       80.07697493806748        50                       0.1121347199397924
-13.818482201055703       73.59834189425378        50                       -0.07809821397476659
-13.81886661895801        73.68706807267297        50                       -0.07393073398474606
-13.494460365287658       73.07174769967482        50                       -0.131305552675899
-13.818674573084934       73.88870735027108        50                       -0.06437679758777555
-13.810319060982685       77.16426665507608        50.00000000000001        0.0943973440737902
-13.215861279071301       76.04314361929397        50                       -0.009728110924202185
-11.906431514205153       70.48128939677548        50                       -0.3903340306251508
-11.903505069762936       73.55392060623018        50                       -0.11229429089458587
-11.08608861457276        72.01341674621061        50                       -0.33980806495306204
-11.634947696290029       70.04970267632285        50                       -0.7246841441562456
-16.588071444618375       80.86707364674437        50                       0.14054431840497586
-15.162224431244455       77.27420371743511        50                       0.10545430040106683
-13.736377417870546       73.68133378812585        50                       -0.07239088308852346
-15.723998832376893       70.28430971316195        50                       -0.6207076832472327
-17.023338263871967       70.35885859106203        50                       -0.48458389972249205
-13.816214080806304       70.17485162310706        50                       -0.6856867496643689
-11.908429329235732       70.06539353305219        50.00000000000001        -0.7325912466668967
-12.310530404496625       70.08846385881658        50                       -0.667453133915402
-10.00064457766515        69.95593544299729        50                       -0.8944574961982257
-17.63178358394747        70.39376780321685        50                       -0.5304870460603119
-3.3360878182026896       62.325499129248925       50                       -10.222015843306794
-5.694435438699789        62.155664074257416       50                       -10.211097242246693
-3.9498364205299215       62.79750712895376        50                       -9.119624930729827
-8.12712940780787         61.88897042043487        50                       -10.201074800352286
-7.898987357163458        62.93087764812866        50                       -8.026528325522538
-6.681636682316244        62.06813096023485        50                       -10.19921158902189
-9.145517254588638        62.39944589827199        50                       -8.83665888031026
-9.997125647962035        61.61601987864975        50.00000000000001        -10.19059279460108
-11.153950987480247       61.4069541109385         50                       -10.199193782458796
-10.310787986553224       61.81423124479967        50                       -9.604221233956226
-13.285531558777793       60.98174320601542        50                       -10.199876306535256
-16.213624453534926       60.2931947116522         50.00000000000001        -10.235536054319656
-14.095892793899946       61.441348769737644       50                       -8.692961094343836
-4.9246724978223355       63.57111275202408        50.00000000000001        -7.4800116923563
-6.9591327514069174       63.34937490945586        50                       -7.464869387191776
-5.4743938254767865       63.99445658549343        50.00000000000001        -6.749885542181928
-10.285549680434926       62.85702387562956        50                       -7.450305864537618
-9.374804142939471        63.98746328226986        50                       -5.928460133718975
-8.247242437489431        63.186645447975536       50.00000000000001        -7.449873090485048
-10.978004614476134       63.19421706302076        50                       -6.755261348491915
-11.544564734600662       62.626716733409275       50                       -7.44557336596676
-12.267462291335086       62.46928744809331        50.00000000000001        -7.4512402257176165
-11.747502579495546       62.7553629403312         50                       -7.155502292774154
-6.51389567307922         64.82037180364874        50.00000000000001        -5.440787922232967
-8.248491983905813        64.56718466206414        50                       -5.4055802945943014
-6.9999658874549215       65.1952036929301         50                       -4.933014194031632
-12.492875292991359       63.776050646344274       50.00000000000001        -5.339380951431751
-10.852068433811816       65.04944927240868        50.00000000000001        -4.250519037240722
-9.813784739510636        64.3104796676798         50                       -5.371236159868966
-12.826386934613426       63.9333435297907         50                       -5.014700894212789
-8.10375106744122         66.07324044887211        50                       -3.828032937104335
-9.560186577016498        65.80681988548919        50                       -3.77385280890665
-8.52654305280435         66.39971269389518        50                       -3.454845807646265
-6.125475950810234        62.563433022143          50                       -9.355572805354742
-11.999863606820494       62.21445112282633        50                       -8.180534488334377
-7.52789408627125         63.88755720608053        50                       -6.626375857968906
-8.947158777327672        65.22843309947339        50                       -4.594094627650363
-1.8169129074496806       63.62086817461581        50                       -7.760278080819122
-3.5268573587209353       64.87769412304698        50.00000000000001        -5.69450566834106
-5.24246988850973         66.11440695106988        50                       -4.10583411382097
-6.964431173198064        67.32859128529336        50.00000000000001        -2.8073300962880436
-2.0688131245781447       63.7838587898899         50.00000000000001        -7.388506586622803
-14.809716972086436       61.86615281273163        50                       -7.395403734358106
-3.894642456603264        65.11208919356186        50.00000000000001        -5.297261463414497
-13.093168020619178       63.64406047149656        50                       -5.27049941305498
-5.736593605347084        66.42416700914487        50                       -3.6949176924203875
-11.38125422700838        65.43958044529963        50.00000000000001        -3.6563373671045785
-9.69423248637353         67.32968332059916        50                       -2.425774740388566
-7.596815130129257        67.71793957640958        50                       -2.3752303715832106
-16.343449082916678       60.418914469896535       50.00000000000001        -9.832391738059044
-13.292226906132662       63.44780655583019        50.00000000000001        -5.5205958374691715
-10.381570599581483       66.58437084568618        50                       -2.9274136720393056
-0.2572812306038819       62.44130365894979        50                       -10.457185932346935
-16.55710362731837        60.205419880389215       50.00000000000001        -10.172304857984656
-8.693535423313744        68.51742887753576        50                       -1.681228967195611
7.587605822642751E-15     62.54576849851054        50.00000000000001        -10.444371748863821
7.647381226594991E-15     62.445606618327794       49.99999999999999        -10.919742910239028
-16.95112368948547        63.803530373547126       50.00000000000001        -4.808081668577392
-18.344802328789967       61.45491355793395        50                       -6.535645430154235
-18.280095147670217       62.62979227994284        50                       -4.871141256329807
-17.079715278064647       65.05853699155094        50                       -2.817140377813304
-17.299717652821258       67.11846837787019        50                       -1.9416174793877812
-18.111750487250216       65.75544346311241        50                       -2.2287291753836445
-17.927998727653993       69.05429704238442        50                       -0.910727859540959
-17.56719042061308        69.77814511102693        50                       -0.7350855356160461
-16.585319840576325       60.447318526105626       50                       -9.78635747404358
-16.67465361913623        60.296160715340726       50.00000000000001        -9.950251203523106
-16.640475693701944       60.94583863116478        50                       -9.049929822431755
-19.010776537238687       64.24639745758697        50                       -3.5831441485955065
-20.01404137276098        62.56238308164261        50                       -4.253151173341719
-19.869375484694793       65.15953689227482        50                       -2.1650162328538363
-19.231334400277422       66.43956508912486        50                       -1.5695588415201627
-18.738964072315497       61.7013566219709         50                       -5.717918423516719
-17.04023116564845        60.55424657613733        50                       -9.208041715687646
-20.895478379941743       63.100985067222744       50                       -3.1835019886507694
-19.345558743718456       67.52821122739753        50                       -1.213969028784328
-17.877405485150987       69.98307013955538        50.00000000000001        -0.6959413328199744
-21.059333903489424       64.6626546515782         50                       -2.154159310666702
-19.779908122993646       66.80194750902773        50                       -1.2961613243053327
-21.68241076083629        63.62082487850006        50.00000000000001        -2.346969801580025
-16.351905780364184       69.0428664154299         50                       -1.3362213127777418
-15.535947300292278       66.64443399352172        49.99999999999999        -2.1072733622437783
-16.482621203074068       60.65922491217902        50.00000000000001        -9.571130225131386
-15.410175329161714       67.2933295544467         50                       -1.865765955014918
-15.311344237890467       67.1055186560598         50                       -1.9431250078951015
-15.375635414621206       66.96992461792503        50                       -1.9786972975548733
-15.35863936582171        66.81924345419364        50                       -2.0285348437110042
-15.230044636529959       66.95868466094103        50                       -1.9787274363859704
-14.26601773564667        65.1677256918208         50                       -4.4802917966184985
-15.010301816598211       63.61484055609364        50                       -5.524556339168871
-13.640603495784841       68.59150123455206        50                       -1.3541579276379814
-12.09588494663682        69.6805683700915         50                       -1.2976463292176317
-13.451553176421154       66.82138085797988        50                       -2.7636856422852762
-11.808100816808537       69.16080575370322        50.00000000000001        -1.5213005486795796
-11.039521859225538       67.74174422370413        50                       -2.5142651679854677
-11.527470938221107       66.67283709803473        50.000000000000014       -2.926637275769951
-15.471425804366856       66.97731986557969        50.00000000000001        -1.9640752906187868
-16.10257453523413        63.72103306287029        50                       -4.792230306666427
-12.281407701847488       66.73104282303258        50                       -2.7127084264662207
-32.81433521158039        74.69485098823219        50                       0.2979851214413794
-35.17873914904901        78.0528001492637         50                       0.2568102868979911
-35.04098527093097        78.31971110043705        50                       0.33846956800059147
-31.617482650916287       74.2057170349538         50.00000000000001        0.20289018718659538
-35.34070597177989        78.67368506716866        50                       0.2699474235055941