% Model:              antena_microStript_AITOR.mph
% Version:            COMSOL 5.0.0.243
% Date:               Jan 11 2023, 12:19
% Dimension:          3
% Nodes:              9721
% Expressions:        1
% Description:        Multislice
% x                       y                        z                        Color
-0.48221261503006296      77.80154478267113        50                       0.415058731271575
-0.5294415768879911       75.88534952503065        50.00000000000001        0.5252684964690786
-1.1615697648534815       76.33094311716451        50.00000000000001        0.49068914550754766
2.0365232034083386E-15    76.15455062934493        50                       0.5103230661670383
1.550324234760436E-15     75.51214076996811        50                       0.5979920168113056
-0.22386691167978368      75.66994683404567        50.00000000000001        0.5738442035165934
-0.5522723483717354       74.95904891785219        50                       0.6663202130954293
-0.5966050620889637       73.16036157768117        50                       1.0576782029933796
-1.1899688983291186       73.5786297838239         50.00000000000001        0.8517706181160918
-2.795494881316255        75.48482989209337        50                       0.5238832726273146
-2.814256940660333        74.72360695336276        50                       0.6123760023891658
-3.0653746046765007       74.9006223500616         50                       0.5973024088374923
-1.6246728991697768       75.32846564150401        50                       0.5605012235883664
-1.6246728991697779       73.885057057496          50                       0.7819256438534183
-2.1276717515028114       74.23962606694275        50                       0.7260030629701031
-2.8655546146579485       72.64233402727439        50.00000000000001        0.9743417722837214
-2.881420425861317        71.99861900601331        50.00000000000001        1.1640498727935173
-3.093773738152145        72.14830901672102        50                       1.0525305478546785
-3.2493457983395557       74.5023806536631         50                       0.6337500594260859
-3.249345798339558        72.25797334502394        50.00000000000001        1.0262892586235302
-4.031476591325836        72.80930529983986        50                       0.9390665364039978
-5.108777147602476        73.1681150015156         50.00000000000001        0.6922051190190927
-5.166235789633679        70.83687643434546        50.00000000000001        1.3622846444311458
-5.9352814311488675       71.37898453273698        50                       1.2353499939804726
-1.6246728991697754       76.65738922900871        50.000000000000014       0.4621101809507462
-3.2493457983395553       75.03030551653661        50                       0.5459536576880775
-4.874018697509333        73.40322180406456        50.00000000000001        0.662691071785876
-4.320140533878533        73.95792185427044        50                       0.6098626151463469
-6.498691596679114        71.77613809159246        50                       0.8496326635485446
-1.624672899169779        72.63762779715925        50                       1.0937797945753003
-3.249345798339559        71.81154280931837        50.00000000000001        1.1860530971440264
-4.874018697509336        70.98545782147747        50.00000000000001        1.327695173386317
-6.498691596679117        70.15937283363658        50                       1.5229427918364116
-4.154844858973693        71.35113063596573        50                       1.264379833210481
3.648525286416826E-15     78.28447294148079        50                       0.3640278821475061
-2.2139442659319832E-31   73.46371278500013        50                       1.0405298282001738
-7.451051153406018        69.67513386267758        50                       1.7429635488067607
-7.42205941388867         70.85140011093782        50                       1.262919433317627
6.127831738340434E-15     64.66441871732103        50.00000000000001        7.600879547478616
-0.6843747381879062       65.24309024354483        50                       6.466249288321965
5.202483630582674E-15     65.99317747944333        50                       5.428805828822642
3.387244862558661E-15     68.59977968474813        50.000000000000014       2.498348872537557
-1.253034005978914        67.92374233000712        50                       2.8705592388980063
-0.3966001456777884       68.86240951211866        50.00000000000001        2.2021549408713086
4.595873803755325E-15     66.8642422342408         50                       4.005927656154852
3.0639158691702176E-15    69.0640657511606         50                       2.093808753984668
-0.12001897995043034      69.1655475307009         50.00000000000001        2.0513715596489006
2.9016373252744917E-15    69.29709052886116        50.00000000000001        2.0162256314987297
1.5319579345851086E-15    71.26388926808035        50                       1.3463091641267015
-0.6886782477414376       71.84619961716317        50                       1.3067416499247417
6.007910199663275E-16     72.60100357827895        50                       1.2679170606201473
-1.6246728991697743       66.03815724639992        50                       4.902805844671246
-2.3860490320074037       66.68193712931334        50                       4.051229257045142
-1.6246728991697756       67.51641930273696        50                       3.309100459804096
-1.6246728991697772       69.67564303904254        50                       1.8503031393563751
-2.954708299798409        69.36258921577566        50                       1.8648658791530464
-2.275722502325711        70.10677007404222        50                       1.577948330843395
-1.6246728991697759       68.2379807633197         50                       2.5378899352082245
-1.6246728991697779       70.43780428023948        50.00000000000001        1.4897847264580266
-1.8216932737699203       70.6043944164694         50.00000000000001        1.4695531454342656
-1.624672899169778        70.82033235215478        50.00000000000001        1.4478312738603014
-3.249345798339556        67.4118957754788         50.00000000000001        3.0907147702964988
-4.087723325826914        68.12078401508185        50                       2.5372815927760177
-3.249345798339557        69.03966112603061        50                       2.070669663880156
-3.249345798339558        70.75150639333694        50                       1.473754498843291
-4.656382593617916        70.80143610154417        50                       1.4260163232538745
-3.249345798339557        69.61171929239859        50                       1.7128560170538003
-4.874018697509334        68.78563430455768        50                       2.0158924635612214
-5.789397619646412        69.55963090085038        50                       1.7544872125920858
-4.874018697509335        70.56290294932425        50                       1.5025564660270287
-0.6023833269318589       66.55795299684519        50                       4.336467654454757
-1.360136271627382        70.57231119351322        50.00000000000001        1.4656402872553262
-2.1236674811657945       67.98426080934527        50.00000000000001        2.704547904860803
-3.6449516353997433       69.41056862184537        50                       1.785476774754832
-1.624672899169773        64.21250625331915        50                       8.743243702591027
-1.3659145364702652       63.96990261267721        50                       9.215669791476195
-3.2493457983395535       65.73574807661278        50                       5.526658143665005
-2.8871986907042047       65.39621042517732        50                       5.976297812522926
-4.8740186975093325       67.25898989990642        50                       3.4200234153422957
-4.4084828449381455       66.82251823767739        50                       3.786556967770021
-6.498691596679114        68.78223172320008        50                       2.1527052648646867
-5.929766999172066        68.24882605017747        50.00000000000001        2.394886831640796
7.503329935890853E-15     62.68926443002551        50                       13.185790979034854
-8.429618319080467        69.86579868435656        49.99999999999999        1.7034687663277353
-7.14124574983266         86.28627505506392        50                       0.17384801864331928
-4.782436586325794        86.44766793707299        50                       0.16920780264238366
-7.130501660562512        84.30489682737412        50                       0.15346177837703784
-3.5779961330782104       86.51435980794767        50                       0.16864454419883684
-2.3612052502019067       86.54738432023751        50.00000000000001        0.16489172848411626
-3.575599526691194        85.6475487587573         50                       0.16122482150314618
-10.689739221497996       85.92942820798397        50                       0.17150558802172272
-9.669647693254163        86.0403796411554         50.00000000000001        0.17239257015949697
-10.684201395633199       85.23689452008432        50                       0.2563711469479466
-3.570618419490849        83.81443514650174        50                       0.13797623841478374
-1.000770765099521        83.9213198430574         50                       0.12601459700286977
-3.565046243395625        81.83060884931245        50                       0.1760074387854029
-7.126488714393599        83.5537666071977         50.00000000000001        0.15003464552871676
-6.200757378295728        83.62968176068692        50.00000000000001        0.14681453305402337
-7.122993601147808        82.9202931553042         50.00000000000001        0.22204699069332495
-3.5632422999531483       81.17815372922092        50                       0.19057726718076468
-2.7281740150314446       81.22439284887135        50                       0.18811832249594496
-3.561597682967793        80.6028398866546         50.00000000000001        0.2516503466184854
9.070666064462005E-15     84.73362572987693        50                       0.1298734232934202
-7.961997058014916        83.46131768361832        50                       0.21698464907940274
-4.351350528446136        81.1120808897072         50.00000000000001        0.23564156818290877
4.570787652066583E-15     79.36459504599244        50                       0.2570955588052899
-0.7381322856456202       78.7604042874154         50.00000000000001        0.331001199589364
8.430025590037236E-15     83.95020562831182        50                       0.12232865118902002
7.847066314867522E-15     83.25752374026914        50                       0.1391484286707706
6.259788109523549E-15     81.34269455062125        50.000000000000014       0.182182046599771
4.097805527425135E-15     78.80258983385872        50                       0.27805555289425543
1.0603302749228463E-14    86.58253756602224        50                       0.15657031923122194
-11.570245062574998       85.8082789744347         50                       0.2177237886805313
-14.170415860396592       85.40907935491639        50                       0.11556761126465075
-15.105709183565263       83.11303561148519        50                       0.13478249424846875
-16.8707239422255         84.92522424363013        50                       0.09909228291422983
-12.25477808873815        82.22836749025727        50                       0.15026036596985787
-12.844037570678232       80.80503750237038        50                       0.18402877134750245
-13.955417739475925       81.9436176774189         50                       0.1553325308568927
-10.34421277263935        79.0772789811819         50                       0.24025080435348892
-10.58362718586757        78.5086876838538         50                       0.25887258587912887
-11.034862066998          78.9699405826153         50                       0.24394501730206525
-12.786335101863298       83.12396618532827        50                       0.15000881249477704
-10.562207396929564       79.44345100927858        50                       0.2344746810612798
-9.05212313804897         76.95879346405708        50                       0.330622743809339
-11.244648927814424       84.66403006069672        50                       0.22519093237251595
-10.588217825722914       82.46404737797025        50.00000000000001        0.1778869945972023
-15.712934826267208       81.62386806088051        50                       0.28881643145962804
-9.922292992809119        80.0774202239359         50                       0.22700074196919023
-9.655077650103753        79.16619539344336        50                       0.24465554325555408
-13.799618207235742       78.49941992667385        50.00000000000001        0.31750569219767055
-11.891619015326395       75.40603645763449        50.00000000000001        0.48489287595252395
-8.757195198090374        75.90179274085419        50                       0.3717416211035009
-8.646494225672942        75.47379579691574        50.00000000000001        0.4032285820504589
-7.876068734439981        72.65328665104272        50                       0.6237432221236335
-9.989168048733283        72.34506598792042        50                       0.7977676317954655
-17.394445730061992       84.39553469518883        50                       0.4724787699372743
-15.160186100264855       80.7345633480448         50.00000000000001        0.3034763620038845
-12.921449141929596       77.09198367590496        50.00000000000001        0.3966431865366036
-10.67800753815044        73.46872943616901        50                       0.6874214461646968
-17.631350700314904       84.77810628831153        50                       0.4039317505636913
-8.825965072515398        83.1332380124477         50                       0.2597027117136014
-5.180231826912394        80.80797246560984        50                       0.2699615041824176
-7.659118607057725        82.37582289547021        50.00000000000001        0.27105073650262634
-1.5284428108873283       78.4808792647553         50                       0.38239771035241016
-4.071704660995849        80.08830411216715        50                       0.3026502350093088
-8.743539754164527        81.27452178616525        50                       0.23117879494388932
-7.003214089274983        80.1391381415753         50.00000000000001        0.25600676970437264
-8.91239511510657         79.43867833610423        50                       0.25311983425432294
-5.1841585134358015       78.96619183140697        50                       0.3094758607910715
-3.4168730176010373       77.81296016275141        50                       0.37820271612534934
-5.335762957087637        77.13426775427924        50.000000000000014       0.3680091187684549
-6.359099443334398        77.78104995454144        50                       0.3289136242300672
-6.8067193439038105       77.32954377615937        50.00000000000001        0.33634086805689845
-6.0956137495564455       76.86551603808745        50.00000000000001        0.3632419137673798
-7.899158313902953        76.22762014892001        50.00000000000001        0.3471086866013289
-8.429280174371813        75.69289572091175        50                       0.35710884272081567
-5.224205173611179        73.62622939917466        50.00000000000001        0.5023296685007413
-5.592497418449991        73.491106584373          50                       0.49612652061101603
-5.523207048996873        74.7208680550282         50                       0.4537808162379386
-17.640562124030385       71.86973513443208        50                       0.4664646885806142
-17.649589717348153       73.95336300555851        50.00000000000001        0.30899291677774304
-17.26360757055343        73.22124802365161        50.00000000000001        0.5240589613271132
-17.64872900948525        74.85706642245233        50.00000000000001        0.22218110967798993
-17.65589145817762        77.47698893707624        50                       0.2652352570006627
-16.622548877892513       75.51573606783768        50                       0.47113244591813686
-17.070033777053936       73.91307483900088        50                       0.3122029214588316
-17.649775820258636       79.87446433358423        50                       0.21944021503237096
-17.65103188801424        80.96571826580796        50.00000000000001        0.3024644263865792
-15.98338840687201        77.79860602367212        50.00000000000001        0.3641772897434532
-16.108456084300574       77.3511513578073         50                       0.28431204175582014
-17.640479236670963       83.51894602433515        50                       0.471943402377636
-17.635340580966343       84.42058142776199        50                       0.5400342113281683
-17.47341700627294        84.11477474714896        50                       0.848948178370046
-15.724917742249781       71.67130804834603        50                       0.535574572527124
-15.734228168153082       73.82021553911574        50.00000000000001        0.4582771659261723
-14.495336736824463       71.47033748034082        50                       0.9180271939941341
-14.840277073499593       70.23360666828907        50                       1.1762952706330998
-15.731465544013385       76.72084301359732        50                       0.27317273466714664
-15.73310525958016        77.3206277960762         50                       0.2955433048007375
-13.8555444667129         73.75707437010128        50                       0.525128899868443
-13.87402065760219        73.69090213758497        50                       0.5190399454637715
-15.729576904877954       78.70382668730309        50                       0.3319066269429809
-15.720968650904169       80.78660496580113        50.00000000000001        0.40249865443711486
-15.344963338613582       80.07697493806748        50                       0.4467819195322422
-13.818482201055703       73.59834189425378        50                       0.5265692025284318
-13.81886661895801        73.68706807267297        50                       0.5240091534474034
-13.494460365287658       73.07174769967482        50                       0.5975937570094136
-13.818674573084934       73.88870735027108        50                       0.5175477030522597
-13.810319060982685       77.16426665507608        50.00000000000001        0.42376895558911565
-13.215861279071301       76.04314361929397        50                       0.5774992452610612
-11.906431514205153       70.48128939677548        50                       0.9555249743436834
-11.903505069762936       73.55392060623018        50                       0.7604441867950935
-11.08608861457276        72.01341674621061        50                       1.2838935328674004
-11.634947696290029       70.04970267632285        50                       1.3875430972993859
-16.588071444618375       80.86707364674437        50                       0.36166661509936715
-15.162224431244455       77.27420371743511        50                       0.3031607202757577
-13.736377417870546       73.68133378812585        50                       0.5293945137910241
-15.723998832376893       70.28430971316195        50                       1.2570916892189539
-17.023338263871967       70.35885859106203        50                       0.9896130383974309
-13.816214080806304       70.17485162310706        50                       1.3063398261364525
-11.908429329235732       70.06539353305219        50.00000000000001        1.4226175365227207
-12.310530404496625       70.08846385881658        50                       1.2555141133351668
-10.00064457766515        69.95593544299729        50                       1.8657105591934178
-17.63178358394747        70.39376780321685        50                       1.0538076119639237
-3.3360878182026896       62.325499129248925       50                       14.986901261767319
-5.694435438699789        62.155664074257416       50                       14.971101647202142
-3.9498364205299215       62.79750712895376        50                       13.29563449271124
-8.12712940780787         61.88897042043487        50                       14.962970086399466
-7.898987357163458        62.93087764812866        50                       11.612043997911401
-6.681636682316244        62.06813096023485        50                       14.959587023563437
-9.145517254588638        62.39944589827199        50                       12.860847938262417
-9.997125647962035        61.61601987864975        50.00000000000001        14.966174648374743
-11.153950987480247       61.4069541109385         50                       14.98370570514617
-10.310787986553224       61.81423124479967        50                       14.101606618510012
-13.285531558777793       60.98174320601542        50                       15.007503447673013
-16.213624453534926       60.2931947116522         50.00000000000001        15.077124136053477
-14.095892793899946       61.441348769737644       50                       12.782110888919595
-4.9246724978223355       63.57111275202408        50.00000000000001        10.63433077852586
-6.9591327514069174       63.34937490945586        50                       10.656237577623816
-5.4743938254767865       63.99445658549343        50.00000000000001        9.497027928709757
-10.285549680434926       62.85702387562956        50                       10.712078164672139
-9.374804142939471        63.98746328226986        50                       8.301254690485091
-8.247242437489431        63.186645447975536       50.00000000000001        10.667304111374321
-10.978004614476134       63.19421706302076        50                       9.635004992279308
-11.544564734600662       62.626716733409275       50                       10.74043084928647
-12.267462291335086       62.46928744809331        50.00000000000001        10.765915327156499
-11.747502579495546       62.7553629403312         50                       10.307976882813746
-6.51389567307922         64.82037180364874        50.00000000000001        7.358451666710853
-8.248491983905813        64.56718466206414        50                       7.374511916975944
-6.9999658874549215       65.1952036929301         50                       6.603218062472436
-12.492875292991359       63.776050646344274       50.00000000000001        7.4495592529369645
-10.852068433811816       65.04944927240868        50.00000000000001        5.715056041719983
-9.813784739510636        64.3104796676798         50                       7.388920287259011
-12.826386934613426       63.9333435297907         50                       7.017206593302424
-8.10375106744122         66.07324044887211        50                       4.891919379599098
-9.560186577016498        65.80681988548919        50                       4.87964097298172
-8.52654305280435         66.39971269389518        50                       4.397132975273445
-6.125475950810234        62.563433022143          50                       13.585592412947136
-11.999863606820494       62.21445112282633        50                       11.852033257517393
-7.52789408627125         63.88755720608053        50                       9.28686895318287
-8.947158777327672        65.22843309947339        50                       6.115188671751779
-1.8169129074496806       63.62086817461581        50                       10.820529077264997
-3.5268573587209353       64.87769412304698        50.00000000000001        7.582482206082558
-5.24246988850973         66.11440695106988        50                       5.216013580472904
-6.964431173198064        67.32859128529336        50.00000000000001        3.4906058864972502
-2.0688131245781447       63.7838587898899         50.00000000000001        10.234817250585314
-14.809716972086436       61.86615281273163        50                       10.837431466296259
-3.894642456603264        65.11208919356186        50.00000000000001        6.955918433004749
-13.093168020619178       63.64406047149656        50                       7.42305596586918
-5.736593605347084        66.42416700914487        50                       4.606870344980137
-11.38125422700838        65.43958044529963        50.00000000000001        4.835818460729133
-9.69423248637353         67.32968332059916        50                       3.00922499611888
-7.596815130129257        67.71793957640958        50                       2.9249158492229332
-16.343449082916678       60.418914469896535       50.00000000000001        14.59031960415252
-13.292226906132662       63.44780655583019        50.00000000000001        7.813002352483016
-10.381570599581483       66.58437084568618        50                       3.7420233270017613
-0.2572812306038819       62.44130365894979        50                       14.632900606601998
-16.55710362731837        60.205419880389215       50.00000000000001        15.211750043130744
-8.693535423313744        68.51742887753576        50                       2.2650281174008264
7.587605822642751E-15     62.54576849851054        50.00000000000001        14.232011672127276
7.647381226594991E-15     62.445606618327794       49.99999999999999        15.717496333147679
-16.95112368948547        63.803530373547126       50.00000000000001        6.813238669297596
-18.344802328789967       61.45491355793395        50                       9.727726735972473
-18.280095147670217       62.62979227994284        50                       7.242471050356286
-17.079715278064647       65.05853699155094        50                       3.813507942938898
-17.299717652821258       67.11846837787019        50                       2.818208002180806
-18.111750487250216       65.75544346311241        50                       2.957346593063117
-17.927998727653993       69.05429704238442        50                       1.745732977659586
-17.56719042061308        69.77814511102693        50                       1.5296620998169472
-16.585319840576325       60.447318526105626       50                       14.770709135228241
-16.67465361913623        60.296160715340726       50.00000000000001        14.930847536698206
-16.640475693701944       60.94583863116478        50                       13.609347846680716
-19.010776537238687       64.24639745758697        50                       5.09004732878169
-20.01404137276098        62.56238308164261        50                       6.084887176497492
-19.869375484694793       65.15953689227482        50                       2.9261030323811985
-19.231334400277422       66.43956508912486        50                       2.0488331509962623
-18.738964072315497       61.7013566219709         50                       8.541856918237876
-17.04023116564845        60.55424657613733        50                       13.808266992702297
-20.895478379941743       63.100985067222744       50                       4.395351717059928
-19.345558743718456       67.52821122739753        50                       1.8657220533285694
-17.877405485150987       69.98307013955538        50.00000000000001        1.390178006561385
-21.059333903489424       64.6626546515782         50                       3.317638144635784
-19.779908122993646       66.80194750902773        50                       1.8792353379439992
-21.68241076083629        63.62082487850006        50.00000000000001        3.3764892767031265
-16.351905780364184       69.0428664154299         50                       2.28644693265686
-15.535947300292278       66.64443399352172        49.99999999999999        2.6388721537954725
-16.482621203074068       60.65922491217902        50.00000000000001        14.301523752532196
-15.410175329161714       67.2933295544467         50                       2.3939045187439354
-15.311344237890467       67.1055186560598         50                       2.4594614295511485
-15.375635414621206       66.96992461792503        50                       2.4765075479961345
-15.35863936582171        66.81924345419364        50                       2.5115226910616513
-15.230044636529959       66.95868466094103        50                       2.4534276816437735
-14.26601773564667        65.1677256918208         50                       6.396804281710455
-15.010301816598211       63.61484055609364        50                       7.884507470799123
-13.640603495784841       68.59150123455206        50                       1.7342881299013544
-12.09588494663682        69.6805683700915         50                       2.132565026265356
-13.451553176421154       66.82138085797988        50                       3.758601405381233
-11.808100816808537       69.16080575370322        50.00000000000001        2.3254498127235173
-11.039521859225538       67.74174422370413        50                       3.7156991443668006
-11.527470938221107       66.67283709803473        50.000000000000014       3.9832723151739797
-15.471425804366856       66.97731986557969        50.00000000000001        2.4567934935511877
-16.10257453523413        63.72103306287029        50                       6.793894684106849
-12.281407701847488       66.73104282303258        50                       3.576777208915657
-32.81433521158039        74.69485098823219        50                       0.6907205654552143
-35.17873914904901        78.0528001492637         50                       0.831084089071127
-35.04098527093097        78.31971110043705        50                       1.3407882559183595
-31.617482650916287       74.2057170349538         50.00000000000001        0.7263098303727935
-35.34070597177989        78.67368506716866        50                       0.8802313731409601
-34.942733519413224       78.50198789631112        50                       0.7859646852622332
-31.885556966433676       75.24274339992151        50                       0.4932880159453019
-34.48308004612292        75.39609832435764        50                       0.685667211893654